/*--------------------------------*- C++ -*----------------------------------*\
| =========                 |                                                 |
| \\      /  F ield         | OpenFOAM: The Open Source CFD Toolbox           |
|  \\    /   O peration     | Version:  2.3.1                                 |
|   \\  /    A nd           | Web:      www.OpenFOAM.org                      |
|    \\/     M anipulation  |                                                 |
\*---------------------------------------------------------------------------*/
FoamFile
{
    version     2.0;
    format      ascii;
    class       volScalarField;
    location    "600";
    object      alphat;
}
// * * * * * * * * * * * * * * * * * * * * * * * * * * * * * * * * * * * * * //

dimensions      [0 2 -1 0 0 0 0];

internalField   nonuniform List<scalar> 
6852
(
0.00660068
0.00668851
0.00653106
0.00623304
0.003254
0.00318292
0.00303491
0.00285984
0.00320996
0.00304323
0.00283041
0.00262605
0.00246388
0.00295304
0.00268714
0.00245348
0.00228479
0.00216392
0.00275376
0.00250766
0.00230686
0.00217988
0.0020878
0.00291869
0.00269184
0.00250981
0.0023949
0.00230293
0.00314813
0.00292317
0.00274358
0.00263067
0.00253947
0.00340589
0.00317688
0.00299565
0.0028864
0.00279983
0.00368593
0.00345071
0.00326711
0.00316557
0.00308784
0.00398347
0.0037424
0.00355681
0.00346717
0.00340264
0.00430094
0.00405956
0.00387351
0.0037978
0.00375061
0.00464015
0.0044178
0.00424476
0.00418076
0.00415044
0.00496502
0.0047908
0.00464415
0.00459607
0.00458564
0.00522951
0.00514229
0.00503688
0.00501157
0.00502441
0.00541118
0.00541068
0.00537551
0.00537926
0.00541625
0.00549656
0.00556629
0.0055976
0.00563626
0.00569013
0.0054877
0.00560931
0.00569014
0.00575897
0.00582935
0.00539781
0.00555403
0.00566966
0.00576222
0.0058465
0.00524588
0.0054223
0.00556054
0.00567025
0.005765
0.00505194
0.00523783
0.00538955
0.0055109
0.00561307
0.00483391
0.00502217
0.00518136
0.00531066
0.00541831
0.00460582
0.00479252
0.00495601
0.00509154
0.00520422
0.00437726
0.00456093
0.00472779
0.00486965
0.00498839
0.00415363
0.00433446
0.00450536
0.00465504
0.0047821
0.00393515
0.00411402
0.00429146
0.00445226
0.00459081
0.00372621
0.00390301
0.00408666
0.00425965
0.00441295
0.00352424
0.00369973
0.00388919
0.00407509
0.00424553
0.00332524
0.00350102
0.00369535
0.00389328
0.0040814
0.00312432
0.00330279
0.00350075
0.00370803
0.00391166
0.00291662
0.00310059
0.00330078
0.00351271
0.00372534
0.00269887
0.00289071
0.00309181
0.00330253
0.00351377
0.00247259
0.00267241
0.00287308
0.00307694
0.00327332
0.00224911
0.00245109
0.00264744
0.00283807
0.00300467
0.00205796
0.00224816
0.00243327
0.00260904
0.0027505
0.00192871
0.00209429
0.00225863
0.00241806
0.00255167
0.00183886
0.00199427
0.00215809
0.00232737
0.00248111
0.00177177
0.00192633
0.00208972
0.00225742
0.00240738
0.00169926
0.00185736
0.00201491
0.00216809
0.00229681
0.00163426
0.00178511
0.00193104
0.00206433
0.00216632
0.00159584
0.00173604
0.00187317
0.00199659
0.00208605
0.00335198
0.00367362
0.00400703
0.00430576
0.00449978
0.00303719
0.00303986
0.00293629
0.00278346
0.00222221
0.00213358
0.0021
0.00211364
0.00192289
0.00208219
0.00229898
0.00238099
0.0021707
0.00224553
0.00229856
0.00232419
0.00242727
0.00218903
0.00230384
0.00254059
0.00292168
0.00332007
0.00253604
0.00292397
0.00362897
0.00450168
0.00515177
0.00296226
0.00361831
0.0046876
0.00585839
0.00663932
0.00331051
0.0041413
0.00541483
0.0067203
0.00754516
0.00353652
0.00445035
0.00580993
0.0071543
0.00796781
0.00362381
0.00453438
0.00587118
0.00717591
0.00793622
0.00356809
0.00437932
0.00553432
0.00669815
0.00737569
0.00340789
0.0040665
0.00493853
0.00585313
0.00641493
0.0031521
0.00372014
0.00436156
0.00502866
0.00545878
0.00286196
0.00340521
0.00387621
0.00434954
0.00466206
0.0026817
0.00305647
0.00349508
0.00383123
0.00405346
0.00260597
0.00281203
0.00312439
0.0033698
0.00349122
0.00259615
0.00269769
0.00288513
0.00305269
0.00313822
0.00261788
0.00266236
0.00277651
0.00289461
0.0029666
0.00264969
0.0026647
0.00273836
0.00282852
0.0028936
0.0026806
0.00268131
0.00273255
0.00280628
0.00286724
0.00270638
0.0027011
0.00273988
0.00280343
0.00286156
0.0027266
0.00271998
0.00275197
0.0028089
0.00286492
0.00274263
0.00273738
0.00276589
0.00281845
0.00287284
0.00275643
0.00275422
0.0027813
0.00283097
0.00288408
0.00277001
0.00277189
0.00279887
0.0028465
0.00289852
0.00278504
0.00279165
0.00281946
0.00286562
0.00291657
0.00280291
0.00281455
0.00284397
0.0028892
0.0029393
0.00282466
0.00284134
0.00287314
0.00291839
0.00296867
0.00285178
0.00287262
0.00290775
0.00295478
0.00300821
0.00288677
0.0029086
0.00294711
0.00299827
0.00306025
0.00293445
0.00295039
0.00299047
0.00304878
0.00312895
0.00300323
0.00300073
0.00303486
0.00309862
0.00320117
0.00310774
0.0030688
0.00308069
0.00313799
0.00324886
0.00326785
0.00317522
0.00314029
0.00316734
0.00325713
0.00349446
0.00335134
0.00325264
0.00322492
0.0032661
0.00377084
0.00362506
0.00347406
0.00337798
0.00334395
0.00399214
0.00392899
0.00381028
0.00367934
0.00356069
0.00409321
0.00410591
0.00407605
0.00403677
0.00395303
0.00407112
0.0041034
0.00409089
0.00405144
0.00391372
0.00373302
0.00374793
0.00368551
0.00347716
0.00315065
0.00171715
0.00184916
0.00199366
0.00213995
0.00225771
0.0030577
0.00309175
0.00300245
0.00283596
0.00204155
0.00200942
0.00207634
0.00214476
0.00204932
0.00223066
0.00229172
0.00228186
0.00202263
0.00201364
0.0019618
0.00177925
0.00183269
0.00172694
0.00174425
0.00205572
0.00253998
0.00186887
0.00194073
0.00265574
0.00429666
0.00546966
0.00210067
0.00248624
0.00408867
0.00689799
0.00849219
0.00239539
0.0030413
0.00525295
0.00866405
0.0104516
0.0026575
0.00342224
0.00592885
0.0095981
0.0114523
0.00282796
0.00354951
0.00600936
0.00960253
0.011386
0.00287467
0.00338664
0.00516254
0.00815392
0.00975109
0.00288203
0.00320743
0.00418122
0.00638766
0.00788133
0.00289283
0.00311941
0.00376251
0.00533531
0.00663498
0.00290951
0.00310908
0.00362592
0.00483116
0.00592306
0.00286681
0.00313589
0.00361301
0.0046041
0.00552873
0.00274151
0.00316344
0.00363441
0.00448202
0.00526165
0.00259791
0.00312837
0.00364348
0.00437991
0.00503464
0.00247833
0.00303063
0.00362398
0.0042692
0.00479624
0.00239311
0.00291313
0.00352668
0.00412027
0.00452429
0.00233749
0.0028069
0.00340284
0.00394955
0.00428289
0.0023032
0.00272049
0.00328153
0.00378919
0.00408712
0.0022831
0.002652
0.00317166
0.00364674
0.00392952
0.0022721
0.00259667
0.0030716
0.00351904
0.00379624
0.00226712
0.00255063
0.0029796
0.0034001
0.00367339
0.00226673
0.00251164
0.00289367
0.00328393
0.0035504
0.00227057
0.00247898
0.00281323
0.0031683
0.00342243
0.00227919
0.0024534
0.00273977
0.00305468
0.00328829
0.00229525
0.00243824
0.00267744
0.00294757
0.00315201
0.00232122
0.00243743
0.0026329
0.00285799
0.00303012
0.00235847
0.00245276
0.00261189
0.00279888
0.00294463
0.00240941
0.00248573
0.00261885
0.00278304
0.00292454
0.00247788
0.0025374
0.00265417
0.00281365
0.00298073
0.00256908
0.00260816
0.00271114
0.00287241
0.00307519
0.00269064
0.00270291
0.00278725
0.00294464
0.00317187
0.00285084
0.00283222
0.00289019
0.00303095
0.00325884
0.0030552
0.00300979
0.00303974
0.00315492
0.00336501
0.00330432
0.00324277
0.00325367
0.00334925
0.00354173
0.00360152
0.00353707
0.00353131
0.00360517
0.00376712
0.00392754
0.00389646
0.00388943
0.00392734
0.00402746
0.00399916
0.00399468
0.00396208
0.00391794
0.00385447
0.0017702
0.00188271
0.00200946
0.0021514
0.0022972
0.00303051
0.003102
0.00305822
0.00294544
0.00205913
0.00197128
0.00193346
0.00195805
0.00205145
0.0021624
0.0023284
0.00240195
0.0020507
0.00205759
0.00198028
0.00161651
0.00187813
0.00169653
0.0014373
0.00142018
0.00176584
0.00157475
0.0016637
0.00337173
0.00507631
0.0017569
0.00166121
0.00236103
0.00637932
0.00922768
0.00181157
0.00180798
0.00299032
0.00821159
0.0114652
0.0018848
0.0019223
0.00331505
0.00887732
0.0120997
0.00194678
0.00197519
0.00323464
0.00819043
0.0108847
0.00198073
0.00197457
0.00249542
0.00512421
0.00684924
0.00201205
0.00200251
0.00208499
0.00308951
0.00430524
0.00205131
0.00203187
0.00210264
0.00261246
0.00345521
0.00211121
0.00206814
0.00215927
0.00254728
0.00321192
0.00218742
0.00211625
0.00222602
0.00261557
0.00326033
0.00227201
0.00218301
0.00229796
0.00273507
0.00343022
0.00234023
0.00226308
0.00237869
0.00286459
0.00363776
0.0023798
0.00234749
0.0024649
0.00298193
0.00383607
0.00239258
0.00243036
0.00254842
0.00308256
0.00398855
0.00238692
0.00249545
0.00262274
0.00316048
0.00408291
0.00237126
0.00253878
0.00268454
0.00321315
0.0041259
0.00235151
0.0025618
0.00273392
0.00324274
0.00412767
0.00233112
0.00256827
0.00277405
0.00325484
0.00409821
0.00231192
0.0025623
0.00280315
0.00325739
0.0040502
0.00229499
0.00254678
0.00281396
0.00325885
0.00399721
0.00228123
0.00252447
0.00280748
0.00324452
0.0039345
0.00227174
0.00249843
0.00278513
0.00320904
0.003844
0.00226819
0.00247239
0.00275065
0.00315392
0.00372756
0.00227281
0.00245086
0.0027103
0.00308506
0.00359181
0.00228829
0.00243893
0.00267318
0.00301542
0.00345358
0.00231771
0.0024415
0.00264935
0.00296467
0.00335227
0.00236493
0.00246401
0.00265138
0.00296276
0.00334602
0.00243277
0.00250675
0.00267581
0.00298629
0.00337918
0.00252457
0.00257129
0.00272114
0.00302504
0.00343409
0.00264451
0.00266218
0.0027898
0.00307709
0.00349462
0.00279723
0.00278643
0.00288864
0.00314893
0.0035639
0.00298977
0.00295517
0.00303208
0.00326261
0.00367231
0.0032366
0.00318621
0.00323037
0.0033984
0.00371343
0.00358392
0.00353902
0.00355286
0.00364916
0.00383441
0.00382783
0.00381287
0.00380077
0.00381136
0.00384128
0.00174506
0.00184854
0.0019708
0.00211518
0.00227233
0.00286425
0.00297875
0.00297425
0.00289887
0.002309
0.00222863
0.00214569
0.00208666
0.00228802
0.0023065
0.00239229
0.00241997
0.00220366
0.00216895
0.00200675
0.00154625
0.00210558
0.00192132
0.00137191
0.00124357
0.00207571
0.00180134
0.0013389
0.00294407
0.00210894
0.00180494
0.00153004
0.00559124
0.0102419
0.00218355
0.00187467
0.0016996
0.00693217
0.0122074
0.00224024
0.00197857
0.00176582
0.00714127
0.0118744
0.00224624
0.00211794
0.00172868
0.00592258
0.00893934
0.00218491
0.00229813
0.00163177
0.00246723
0.00334472
0.00210258
0.00235764
0.00212574
0.00196468
0.00215699
0.00204178
0.00230213
0.00237736
0.00218329
0.00215825
0.00200793
0.0022215
0.00241153
0.00234899
0.0022758
0.00199317
0.00215414
0.00237014
0.00243312
0.00245204
0.00199046
0.00210773
0.00231484
0.00245882
0.00258651
0.00199808
0.00207933
0.00226425
0.00244846
0.00265559
0.00201273
0.00206472
0.0022233
0.00242041
0.00267864
0.0020312
0.00206055
0.00219263
0.00238683
0.00267481
0.00205107
0.00206399
0.00217126
0.00235412
0.00265294
0.00207083
0.002073
0.00215783
0.00232507
0.00262034
0.00208975
0.00208624
0.00215103
0.0023007
0.00258278
0.00210761
0.00210343
0.00215017
0.00228139
0.0025441
0.00212462
0.00212632
0.002156
0.00226794
0.00250789
0.00214131
0.00214492
0.00217021
0.00226333
0.0024802
0.00215856
0.00215991
0.00218692
0.00226951
0.00245698
0.00217772
0.00217308
0.00219799
0.00227194
0.00243674
0.00220078
0.00218661
0.00220598
0.00227211
0.00242002
0.00223046
0.00220338
0.00221408
0.00227298
0.0024085
0.00227079
0.00222816
0.00222882
0.00228457
0.00241982
0.00232665
0.00226649
0.00225724
0.00231933
0.00247728
0.00240487
0.00232788
0.00231724
0.0024093
0.00268635
0.00251056
0.00241703
0.00240817
0.00252468
0.00291789
0.00264643
0.002537
0.00252701
0.00265781
0.00312952
0.00281411
0.00269313
0.00267835
0.00281179
0.00332304
0.0030128
0.00289024
0.00287012
0.00299527
0.00351582
0.00323801
0.00313144
0.00311711
0.00324799
0.00379766
0.00347441
0.00339951
0.00338986
0.00349692
0.00387029
0.00370238
0.00366972
0.00366196
0.00371169
0.00385737
0.0037206
0.00373395
0.00373286
0.0037412
0.00376494
0.00172368
0.00185098
0.00199551
0.00216016
0.00233236
0.00549101
0.00586436
0.00594979
0.00585622
0.0025866
0.00272145
0.00270283
0.00262554
0.00275773
0.00285274
0.00268275
0.00252783
0.00289751
0.00269399
0.00186546
0.00133789
0.00306217
0.00253065
0.00129236
0.00133285
0.00323123
0.0024781
0.00122654
0.00327274
0.0034084
0.00258175
0.00125572
0.00507384
0.00358922
0.0027638
0.00128366
0.00571043
0.0133374
0.00377895
0.00301125
0.00129491
0.00563674
0.0118193
0.00397885
0.00336198
0.00131106
0.00429621
0.00698303
0.00418285
0.00383552
0.00155509
0.00143778
0.00165805
0.00435516
0.00426091
0.00344457
0.00259546
0.00205538
0.00444698
0.00447096
0.00404306
0.00335276
0.00261127
0.00447996
0.00454727
0.00429988
0.00383315
0.00331688
0.0044688
0.00453404
0.0043546
0.00398566
0.00354514
0.00442932
0.00447398
0.00431489
0.00398813
0.00356925
0.00437703
0.00439758
0.00424241
0.00393848
0.00353697
0.00432143
0.00432122
0.00416652
0.00388116
0.0035054
0.00426756
0.00425242
0.00409976
0.00383304
0.00348708
0.0042176
0.00419385
0.00404668
0.00380014
0.00348489
0.00417186
0.00414573
0.00400819
0.00378413
0.00350065
0.00412949
0.00410717
0.0039838
0.00378518
0.0035355
0.00408897
0.00407695
0.00397274
0.00380322
0.00359024
0.00404846
0.00405347
0.00397407
0.00383839
0.00366625
0.00400562
0.00402981
0.00398591
0.00389095
0.00376536
0.00395798
0.00400568
0.0040022
0.00395655
0.00388256
0.00390302
0.00397939
0.00401848
0.00402743
0.0040164
0.00383787
0.00394789
0.00403376
0.00410316
0.00416393
0.00375931
0.00390748
0.00404489
0.00418249
0.00432786
0.00366285
0.00385232
0.00404346
0.00425419
0.00448191
0.0035431
0.00377526
0.00402071
0.00431324
0.00464288
0.00339389
0.00366799
0.00396333
0.00435162
0.00473636
0.00320577
0.0035097
0.0038322
0.00427228
0.00465989
0.00297907
0.00330104
0.00363752
0.00410044
0.00449081
0.00271755
0.00304548
0.00338723
0.00385747
0.00425752
0.00242578
0.00274304
0.003077
0.00353702
0.00394875
0.00211284
0.00239847
0.00270303
0.00311525
0.00343146
0.00179664
0.00201937
0.00223053
0.00248833
0.00276939
0.00157086
0.00175313
0.00195284
0.00219085
0.0024314
0.00154157
0.00170309
0.00188106
0.00207786
0.00227436
0.00328119
0.00361742
0.00401381
0.00444329
0.00484837
0.00263007
0.00121486
0.0012251
0.00224601
0.00119652
0.00439629
0.00119401
0.00524113
0.00119449
0.00544301
0.00120322
0.0053711
0.0132356
0.00121947
0.00377546
0.00575051
0.00269319
0.00121942
0.00122411
0.001767
0.000859584
0.000858499
0.00629592
0.000854321
0.00858124
0.000855561
0.00893263
0.000855948
0.0089571
0.000857374
0.00884023
0.000857702
0.00654882
0.00873167
0.00177335
0.00085544
0.000855472
0.00147758
0.0017085
0.00197091
0.00221897
0.00242026
0.000817046
0.000888918
0.000967239
0.00105983
0.00114032
0.000883025
0.000921516
0.000959132
0.00223495
0.00241347
0.000879622
0.00174502
0.0008457
0.00154416
0.000862525
0.00160063
0.000908481
0.0017428
0.000968838
0.00191947
0.00104291
0.00213081
0.00112944
0.0023771
0.00123417
0.00267631
0.00132784
0.00139001
0.00284151
0.00243554
0.00210455
0.00139143
0.0014173
0.00137593
0.00126566
0.00116985
0.00143888
0.00144485
0.00140357
0.00133448
0.00127308
0.00147791
0.00147327
0.00143775
0.00139005
0.00134801
0.00151137
0.00150095
0.00147204
0.00143866
0.00140968
0.00153908
0.00152486
0.00150148
0.001478
0.00145819
0.00155935
0.00154187
0.00152228
0.00150528
0.0014911
0.00157065
0.00154978
0.00153196
0.001518
0.00150492
0.00157262
0.00154808
0.00153004
0.00151557
0.00149751
0.00156685
0.00153855
0.00151898
0.00150152
0.00147356
0.00155738
0.00152498
0.00150415
0.00148499
0.00144694
0.00154751
0.00151149
0.00149148
0.00147518
0.00143581
0.00153977
0.00150073
0.00148329
0.00147277
0.00144269
0.00153582
0.00149424
0.0014795
0.00147348
0.00145075
0.00153683
0.0014948
0.00148324
0.00148227
0.00146852
0.00154397
0.00150438
0.00149742
0.00150384
0.00150369
0.00155813
0.00152405
0.00152424
0.00154203
0.00156101
0.00157926
0.00155428
0.00156539
0.00160081
0.00165263
0.00160597
0.00159458
0.00162092
0.00168251
0.00180686
0.00163656
0.00164317
0.00169136
0.00179958
0.00216364
0.00166809
0.00169298
0.00176939
0.00195183
0.00297995
0.00169753
0.00173595
0.00183963
0.00207157
0.00335701
0.00172154
0.00176825
0.00189171
0.0021407
0.00345548
0.00173724
0.00178897
0.00192268
0.00216725
0.00342854
0.00173961
0.00179609
0.00193257
0.00216117
0.00327825
0.00171687
0.00178091
0.0019166
0.00213378
0.00318364
0.00164246
0.00172309
0.00186078
0.00205939
0.00269401
0.00148373
0.00158004
0.00171492
0.00186253
0.00211499
0.00123942
0.00135125
0.00148082
0.00160373
0.00170546
0.0022499
0.0025096
0.00278583
0.00304312
0.00327082
0.000755574
0.000858814
0.000962129
0.00106003
0.00115063
0.00258546
0.0025294
0.00215686
0.00176425
0.00157553
0.00328777
0.00299257
0.00183015
0.00109005
0.00115162
0.00352389
0.00289672
0.000921533
0.00293174
0.000800408
0.00289777
0.000809824
0.00285833
0.000861667
0.00281186
0.000929408
0.00276616
0.00101227
0.00274007
0.00110877
0.0027316
0.0012362
0.00288614
0.00148492
0.00126318
0.00113248
0.00102616
0.0030485
0.00196344
0.00163179
0.00158682
0.00161788
0.00318223
0.0024786
0.00220227
0.00214453
0.00216824
0.0032614
0.00288206
0.00269316
0.00262866
0.00261932
0.00328543
0.00312977
0.003024
0.00296258
0.0029177
0.00327304
0.00325651
0.0032143
0.00315847
0.0030826
0.00324785
0.0033145
0.0033145
0.00326101
0.00315715
0.00322976
0.00334619
0.00337046
0.00331301
0.0031825
0.00323048
0.00337639
0.00341026
0.00334152
0.00318916
0.0032524
0.0034137
0.00344433
0.00335621
0.00320206
0.00329028
0.00345643
0.00347337
0.00335226
0.00315434
0.00333603
0.00350061
0.00349852
0.00332691
0.00298281
0.00338204
0.00354399
0.00352411
0.0032903
0.00267793
0.00341681
0.00358234
0.00355144
0.00327126
0.0025209
0.00343754
0.00361133
0.00357863
0.00327394
0.00245319
0.00344513
0.00362998
0.00360604
0.00329937
0.0024593
0.00344223
0.00363882
0.00363345
0.00334327
0.00248196
0.00343276
0.00363858
0.0036581
0.00339538
0.00250936
0.00342021
0.00362822
0.00366819
0.00340762
0.00241187
0.00340014
0.00360131
0.00362329
0.00316241
0.0017643
0.00336729
0.00354747
0.00344616
0.00229005
0.00237614
0.00331782
0.0034693
0.00326291
0.00212571
0.00304646
0.00324522
0.00337086
0.00312678
0.00216213
0.00319494
0.00314135
0.0032481
0.00301902
0.00220442
0.00313021
0.00300007
0.00309616
0.00291439
0.0022176
0.00295912
0.00281887
0.00291325
0.00278961
0.0021913
0.00304817
0.0025681
0.00270634
0.00267079
0.00226406
0.00231228
0.00228078
0.00241117
0.00248989
0.00231695
0.00195517
0.00206052
0.00214011
0.00220283
0.00219295
0.00197241
0.00114716
0.00122687
0.00131521
0.00141046
0.00151799
0.000855747
0.00095899
0.00105772
0.0011508
0.00123531
0.0029597
0.00288983
0.00243908
0.00198556
0.00176129
0.00393166
0.00352436
0.00203045
0.00114673
0.00119569
0.00422354
0.00336087
0.000995286
0.00435516
0.00340817
0.000864728
0.00340018
0.000850975
0.00336995
0.000891022
0.00331778
0.000949265
0.00325582
0.00102479
0.00322294
0.00111551
0.00321466
0.00125231
0.00346256
0.00163564
0.00135807
0.00131442
0.003768
0.00237758
0.00194297
0.00189615
0.00192885
0.00407132
0.00321482
0.00287425
0.00280303
0.00282583
0.00431672
0.00391187
0.00371738
0.0036575
0.00365571
0.00449246
0.00438995
0.00432813
0.00430004
0.00428038
0.00462063
0.0046997
0.00473818
0.00474597
0.0047183
0.00472903
0.00491361
0.00502118
0.0050606
0.00503157
0.00483656
0.00508281
0.00523556
0.00530025
0.00527694
0.0049476
0.00522829
0.00540853
0.00549336
0.00547787
0.00505455
0.00534988
0.00554355
0.0056363
0.00558324
0.00514454
0.00543913
0.00563208
0.0056943
0.005456
0.00520764
0.00549108
0.00566886
0.00565084
0.0051014
0.00524042
0.00550807
0.00565853
0.00550475
0.00432272
0.00524158
0.00549331
0.0056201
0.00537394
0.00396524
0.0052134
0.00545307
0.00556873
0.00527789
0.00378041
0.00516117
0.00539481
0.00551402
0.00521541
0.00368028
0.00508996
0.0053228
0.00545709
0.00517542
0.00361689
0.00500361
0.00523713
0.00538734
0.00511883
0.00352974
0.00490247
0.00512977
0.00526151
0.00486252
0.0030043
0.00478348
0.00498219
0.00495921
0.00383212
0.00188897
0.00464072
0.00476813
0.00429453
0.00228079
0.00390632
0.00447489
0.00454014
0.00383873
0.00232587
0.00518346
0.00428682
0.00432373
0.00361878
0.00248499
0.0053722
0.00407669
0.00411038
0.00349954
0.00254104
0.00517145
0.00385367
0.00389561
0.00341194
0.00248993
0.00472908
0.00363641
0.00368819
0.00331445
0.0023889
0.00464116
0.00343983
0.00352091
0.00328338
0.00236594
0.00326506
0.00314478
0.00327516
0.00322613
0.00253137
0.00222426
0.00270829
0.00278334
0.00279603
0.00255998
0.0020563
0.00123927
0.00130285
0.00137196
0.00144936
0.00154678
0.000978839
0.0010752
0.00116574
0.00125243
0.00132523
0.00306078
0.00297809
0.00250296
0.00205178
0.00181505
0.00411285
0.00365627
0.0020747
0.00119693
0.00123409
0.00439658
0.00346913
0.00106005
0.00450353
0.00350167
0.000931604
0.00455037
0.00350804
0.000890027
0.00348048
0.000911653
0.00341772
0.000954927
0.00334331
0.00102474
0.00332803
0.00112127
0.00334516
0.00129272
0.00366607
0.00183336
0.00150482
0.00151774
0.00405102
0.00279312
0.00229183
0.00223181
0.00439835
0.00378281
0.00349806
0.00344303
0.00346734
0.00464045
0.00450029
0.00443824
0.00444304
0.00447246
0.00479243
0.00491554
0.0050032
0.00507283
0.00512161
0.00491001
0.00516324
0.00534534
0.00547364
0.00555321
0.00503309
0.00535258
0.00559742
0.00578126
0.00590451
0.00517358
0.0055311
0.00582444
0.00606648
0.00625047
0.00532028
0.00570034
0.00603666
0.00634457
0.00658412
0.00545138
0.00584262
0.00621863
0.00658016
0.00677256
0.00554527
0.0059356
0.00633429
0.00668444
0.00665052
0.00559038
0.00596618
0.00635318
0.00660123
0.00617855
0.00558771
0.0059389
0.00628045
0.00632473
0.00507155
0.00554296
0.00587017
0.00617467
0.00610007
0.00460659
0.0054647
0.00577452
0.00606126
0.00593744
0.00436755
0.00536183
0.00566126
0.00594652
0.00581701
0.00422512
0.00524091
0.0055338
0.00582619
0.00571406
0.00412984
0.00510599
0.00539066
0.00568196
0.00556117
0.00395746
0.00495758
0.00522265
0.00545584
0.0050844
0.00308899
0.00479413
0.00501066
0.00499485
0.00364284
0.00219948
0.00461204
0.00473352
0.00410755
0.00241323
0.00591965
0.00441574
0.00447471
0.00367048
0.00286055
0.00759904
0.00420288
0.00424651
0.00352998
0.00316412
0.00768918
0.00396924
0.0040205
0.00345435
0.00321332
0.00731657
0.00372229
0.00378299
0.00336307
0.00304484
0.00660464
0.00348961
0.00355461
0.00323688
0.00281182
0.00624643
0.00332401
0.0034038
0.00318557
0.00254357
0.00442786
0.0032031
0.00331477
0.00321917
0.00251233
0.00279657
0.0028436
0.00290326
0.00288723
0.00257953
0.0021543
0.00133474
0.00138746
0.00144025
0.00149832
0.00157992
0.00110155
0.00118919
0.00127156
0.00135246
0.00141431
0.00315534
0.00305465
0.00254737
0.00209543
0.00185535
0.00423462
0.00373184
0.0020897
0.00124598
0.00127056
0.00449057
0.00352451
0.00112385
0.00456841
0.00353921
0.000999952
0.00460733
0.0035532
0.000938946
0.00461556
0.00353257
0.000942863
0.00345923
0.000976226
0.00336234
0.00105942
0.00339398
0.00117855
0.00347097
0.00139347
0.00389396
0.00208368
0.00165712
0.00170014
0.00434436
0.00327086
0.00271038
0.00263365
0.00466672
0.00434745
0.00417508
0.00416427
0.00481919
0.00494207
0.00503536
0.0051317
0.00521829
0.00488569
0.00517991
0.0053995
0.0055755
0.00571947
0.00495812
0.00531129
0.00559691
0.00583874
0.0060459
0.00506599
0.00544535
0.00577939
0.00609527
0.00638809
0.00519909
0.0055978
0.00598492
0.00638778
0.00678114
0.00533185
0.00574841
0.0061958
0.00670406
0.00717364
0.00543859
0.00587218
0.00638618
0.00698611
0.00741708
0.00550015
0.00594383
0.00650612
0.00711539
0.00730966
0.0055096
0.0059465
0.00649823
0.00698154
0.00672169
0.00547279
0.00588831
0.00637781
0.00660533
0.00541663
0.00540027
0.00579717
0.00624514
0.00635098
0.00494512
0.00530222
0.00568717
0.00611771
0.00618263
0.00472949
0.00518605
0.0055621
0.00598848
0.00605384
0.00461137
0.00505688
0.00542207
0.00584697
0.00592752
0.00451975
0.00491805
0.00526535
0.00567216
0.00571827
0.00427105
0.00477072
0.00508611
0.00540625
0.00510147
0.0031296
0.00461391
0.00486935
0.00489066
0.00352129
0.0027438
0.00444595
0.00460372
0.00397077
0.00291711
0.00809579
0.00426745
0.00437488
0.00365661
0.00376594
0.0100566
0.00406679
0.00416981
0.00360476
0.00418022
0.0100143
0.00383482
0.00394703
0.00355458
0.00420114
0.00948749
0.00357717
0.00368828
0.00343238
0.0038733
0.00853254
0.00332562
0.0034236
0.00324576
0.00346333
0.00783828
0.00313054
0.00323062
0.00311147
0.00292483
0.00565907
0.00303274
0.00315953
0.00311235
0.00261068
0.00351079
0.0027402
0.00280317
0.00280462
0.00254746
0.00235162
0.00144376
0.00148753
0.00152434
0.0015619
0.00162848
0.00121339
0.0012933
0.0013697
0.00144718
0.00150108
0.00327084
0.00315002
0.00259975
0.00214166
0.00189976
0.0043563
0.00380679
0.00210186
0.00129671
0.0013078
0.00458022
0.00358036
0.00118999
0.00463722
0.0035853
0.00107033
0.0046728
0.00360295
0.00100571
0.00468922
0.00359682
0.000999848
0.00465086
0.00350449
0.00104253
0.00342597
0.00114987
0.00352537
0.00129199
0.00365341
0.00153351
0.00418857
0.00237626
0.00179147
0.00184914
0.00467447
0.00381991
0.00323511
0.00314269
0.00490909
0.00488653
0.00486863
0.00491986
0.00494523
0.00525535
0.00548029
0.00567081
0.00495029
0.00532954
0.00563676
0.00590438
0.00615159
0.00500757
0.00539944
0.00574763
0.00608274
0.00641641
0.00510741
0.00550724
0.00589776
0.00631617
0.00675685
0.00521852
0.00563312
0.00608214
0.00661145
0.00716861
0.00531652
0.00575324
0.00627844
0.00693617
0.00757048
0.00538434
0.0058479
0.00645403
0.00721562
0.00780865
0.00541216
0.00589819
0.00655913
0.00733479
0.00769331
0.00539764
0.00588868
0.00653967
0.00717711
0.00704453
0.00534618
0.00582488
0.00640593
0.00675355
0.00563966
0.00526778
0.00573573
0.00627838
0.00651892
0.00524402
0.00517104
0.00563102
0.00615936
0.00637151
0.00508645
0.00506034
0.00550927
0.00602962
0.0062464
0.0049947
0.00493992
0.00536978
0.0058788
0.00610455
0.0048948
0.00481326
0.00521428
0.00569045
0.00585578
0.00456008
0.00468229
0.00504232
0.00541556
0.00515396
0.00323348
0.00454563
0.0048443
0.00490373
0.00361244
0.00348113
0.00440192
0.00461577
0.00405726
0.00370864
0.0100439
0.00424382
0.00442545
0.00388278
0.00506351
0.0122871
0.00405133
0.00423951
0.00390393
0.00562527
0.0122068
0.00381503
0.00401065
0.00384846
0.00557528
0.0115592
0.00354318
0.0037212
0.00366937
0.00506634
0.0104446
0.00327534
0.00341192
0.00339793
0.00441227
0.00941505
0.0030502
0.00316159
0.00315142
0.00352634
0.00694399
0.00290512
0.003045
0.00305937
0.00283497
0.00433873
0.00258589
0.00265146
0.00268413
0.00253252
0.00264898
0.00156738
0.00160301
0.00162292
0.00163848
0.00169547
0.00131179
0.00138582
0.00145892
0.00153564
0.00158487
0.00340392
0.00326278
0.00266122
0.00219361
0.0019502
0.00448203
0.00388873
0.00211729
0.00134967
0.0013465
0.00467489
0.00364608
0.00125976
0.00472204
0.00365201
0.00114377
0.00476178
0.00367582
0.00109108
0.00479262
0.00369157
0.00108433
0.00477748
0.00361299
0.00114469
0.00475571
0.00357944
0.0012707
0.00374302
0.00142699
0.00389154
0.00167528
0.00453986
0.00271443
0.00190384
0.00196804
0.0050174
0.00443315
0.00388041
0.00376717
0.005121
0.00535256
0.00548495
0.00557895
0.00507167
0.00548438
0.00579198
0.00604949
0.00506868
0.00548733
0.00584928
0.00618858
0.00513108
0.00554827
0.00594296
0.00635159
0.00679014
0.00521957
0.00564629
0.00608625
0.00658729
0.00714381
0.00530753
0.00575575
0.00626107
0.00688167
0.00755153
0.00537787
0.00585725
0.00644302
0.00719009
0.00791807
0.00542097
0.00593502
0.00659781
0.00743194
0.00808997
0.00543195
0.00597339
0.00667982
0.00750412
0.00789893
0.00541009
0.00596065
0.00664969
0.00732228
0.00721257
0.00535973
0.00590305
0.00652967
0.00693837
0.00587517
0.00528891
0.00582579
0.00642193
0.00673799
0.00557993
0.00520205
0.00573019
0.00631285
0.00660939
0.0054674
0.00510304
0.00561455
0.00618163
0.00648319
0.00538023
0.00499604
0.00547861
0.00602435
0.00632582
0.00525732
0.00488448
0.00532935
0.0058321
0.00605146
0.00484761
0.00476937
0.00517024
0.00556642
0.00531228
0.00344148
0.004649
0.00499728
0.00509292
0.00392232
0.00421071
0.00452119
0.00480753
0.00437303
0.0047363
0.0116152
0.00437126
0.00464619
0.00433142
0.0064014
0.0141964
0.00417359
0.00446545
0.00441011
0.00705651
0.0141565
0.00391997
0.00421487
0.00433694
0.00696765
0.0134476
0.00362319
0.00387827
0.00407989
0.00631048
0.0122494
0.00333596
0.00351087
0.00369661
0.00542995
0.010927
0.00309727
0.00319792
0.00331875
0.00423127
0.00823007
0.00287654
0.0030015
0.00307206
0.00315591
0.00524393
0.00244618
0.00249633
0.00255595
0.00255024
0.00304904
0.00170476
0.00173338
0.00173581
0.00172834
0.00178586
0.00139664
0.00146705
0.00153944
0.00161784
0.00166555
0.00355058
0.00338968
0.00273018
0.00225073
0.00200594
0.00461131
0.00397948
0.00213816
0.00140496
0.001387
0.0047769
0.00372481
0.00133388
0.00482386
0.00374071
0.00122473
0.00487685
0.00378131
0.00118521
0.00492601
0.00382125
0.0011865
0.00494395
0.0037887
0.00126169
0.00495108
0.00380852
0.00139544
0.00497165
0.00401087
0.00155838
0.00417546
0.00179938
0.00493298
0.00310653
0.00199889
0.00206333
0.00535299
0.00507254
0.00459894
0.00438639
0.00532394
0.00572582
0.00592063
0.00605116
0.00525391
0.00572255
0.00609348
0.00641399
0.00526646
0.00572656
0.0061388
0.00653793
0.00533331
0.00579531
0.00624007
0.00670993
0.00541624
0.00589545
0.00638879
0.0069518
0.00758393
0.00549472
0.00600357
0.0065626
0.00723691
0.00796351
0.00555682
0.00610279
0.00673499
0.00751169
0.00825671
0.00559586
0.00617866
0.00687247
0.00770096
0.00832955
0.00560813
0.00621753
0.00693744
0.0077228
0.00804686
0.00559275
0.00621106
0.00690675
0.00753248
0.00732849
0.00555283
0.00616537
0.00680759
0.00721028
0.00616031
0.00549466
0.00609929
0.00671599
0.00705077
0.00594153
0.00542181
0.00601313
0.00661645
0.00693835
0.00585476
0.00533771
0.0059062
0.00649156
0.00681023
0.00576589
0.00524578
0.00578131
0.00633509
0.0066437
0.00562107
0.00514834
0.00564368
0.00614818
0.00636045
0.00516269
0.00504573
0.00549819
0.00590199
0.00562249
0.00376506
0.00493562
0.00534682
0.00548145
0.00443217
0.00483999
0.0048124
0.00518561
0.00490207
0.00571163
0.0128086
0.00465527
0.00503508
0.0049631
0.00768055
0.0157861
0.0044321
0.00484022
0.00510916
0.00848906
0.0158508
0.00413597
0.00454525
0.0050277
0.00841405
0.0151267
0.00379141
0.00413533
0.00467825
0.00764972
0.0139084
0.00347136
0.00368852
0.00415505