/*--------------------------------*- C++ -*----------------------------------*\
| =========                 |                                                 |
| \\      /  F ield         | OpenFOAM: The Open Source CFD Toolbox           |
|  \\    /   O peration     | Version:  2.3.1                                 |
|   \\  /    A nd           | Web:      www.OpenFOAM.org                      |
|    \\/     M anipulation  |                                                 |
\*---------------------------------------------------------------------------*/
FoamFile
{
    version     2.0;
    format      ascii;
    class       volScalarField;
    location    "600";
    object      epsilon;
}
// * * * * * * * * * * * * * * * * * * * * * * * * * * * * * * * * * * * * * //

dimensions      [0 2 -3 0 0 0 0];

internalField   nonuniform List<scalar> 
6852
(
0.0349079
0.0363201
0.0338151
0.029394
0.0669164
0.0626264
0.0542898
0.0454262
0.064236
0.0547371
0.0440378
0.0351711
0.0290496
0.0500132
0.0376834
0.0286832
0.0231643
0.019679
0.0405564
0.0306256
0.0238419
0.0201176
0.0176745
0.0482885
0.0378816
0.0307046
0.0266773
0.0237202
0.0605951
0.0485112
0.0401079
0.0353573
0.0318058
0.0767307
0.0622704
0.0522097
0.0467033
0.0426259
0.0972572
0.0798006
0.0677284
0.0616074
0.0571799
0.122762
0.101796
0.0873896
0.0809479
0.0765115
0.154515
0.129932
0.112874
0.106384
0.102468
0.194033
0.167455
0.148538
0.141921
0.138855
0.237707
0.213552
0.194535
0.188556
0.187275
0.277755
0.264089
0.248178
0.244456
0.24634
0.30772
0.307634
0.301675
0.302307
0.308585
0.322516
0.334948
0.340632
0.347738
0.357805
0.32096
0.342774
0.357806
0.370948
0.384716
0.305445
0.332739
0.353956
0.371577
0.388121
0.280371
0.309621
0.33391
0.354068
0.372116
0.250412
0.279083
0.304044
0.325049
0.343463
0.21937
0.24601
0.270154
0.290888
0.308938
0.189759
0.213782
0.236415
0.256346
0.273745
0.162888
0.184264
0.205236
0.224271
0.241079
0.139176
0.158156
0.17761
0.195908
0.212392
0.118349
0.135232
0.153495
0.171404
0.187909
0.100481
0.115473
0.132552
0.150107
0.166904
0.0850113
0.0983542
0.114251
0.13143
0.14862
0.0714086
0.0833425
0.0980047
0.114612
0.132041
0.0592308
0.0699723
0.083323
0.0990177
0.116242
0.0481863
0.0578918
0.0698444
0.08418
0.100411
0.0381794
0.0469132
0.057401
0.0699556
0.0842564
0.0293587
0.0370675
0.0460601
0.056577
0.0681157
0.0220962
0.0285995
0.0360379
0.0443969
0.0526831
0.0169275
0.022068
0.0279804
0.0344924
0.0404124
0.0139342
0.01784
0.0223776
0.0274589
0.0322667
0.0120761
0.015404
0.0195204
0.0244835
0.0296632
0.0108019
0.0138826
0.0177233
0.0223417
0.0270964
0.00952917
0.0124443
0.0158871
0.019793
0.0235319
0.00847699
0.0110478
0.0139848
0.0170851
0.0197445
0.0078931
0.0101614
0.0127648
0.0154578
0.01763
0.00457155
0.00601786
0.00780959
0.00968966
0.0110595
0.054412
0.0545555
0.0491673
0.0418827
0.0196794
0.0168334
0.013903
0.0117111
0.0109451
0.00774568
0.00622368
0.00598391
0.00652744
0.00655815
0.00664873
0.00624371
0.00600776
0.00563111
0.00545806
0.00513934
0.00485776
0.00489639
0.00618281
0.00601751
0.00578305
0.00567822
0.00572238
0.00719535
0.00711106
0.00706949
0.00709341
0.00716416
0.00844981
0.00843074
0.00852011
0.00860502
0.0086685
0.00997048
0.0100121
0.0101954
0.0103233
0.0103703
0.011734
0.0118091
0.0120714
0.0122637
0.0123128
0.0137287
0.0137351
0.0140352
0.0142485
0.0143336
0.015977
0.0156835
0.0158585
0.0159779
0.0160757
0.0193729
0.0178904
0.0178567
0.0179642
0.0180971
0.0252643
0.0205706
0.0203448
0.0205385
0.0208006
0.0320848
0.0256016
0.0233188
0.0236628
0.0241732
0.0383526
0.0321715
0.0285888
0.0287635
0.0303049
0.0429105
0.0380001
0.034691
0.0350514
0.0373407
0.0452438
0.0417989
0.0394747
0.0401187
0.0428164
0.045465
0.0433161
0.0419048
0.0428659
0.045646
0.0440466
0.0429038
0.0421991
0.0433272
0.0460244
0.041563
0.041151
0.0409491
0.0421234
0.0446192
0.0385282
0.0386389
0.0387926
0.039948
0.0421902
0.0353262
0.0358259
0.0362508
0.0373804
0.0393825
0.0322026
0.0330183
0.0336856
0.0348293
0.0366591
0.0292757
0.0303782
0.0313061
0.0325403
0.0343096
0.026608
0.0279817
0.0292052
0.0306277
0.0324813
0.024204
0.0258396
0.0273982
0.0291177
0.0312331
0.0220257
0.0239171
0.025843
0.027965
0.0305492
0.02004
0.0221537
0.024464
0.0270761
0.0303267
0.0182102
0.0204921
0.0231605
0.0263025
0.0303989
0.0165024
0.0188641
0.0218098
0.0254366
0.0304482
0.0149083
0.0172211
0.0202943
0.0242529
0.0300511
0.0134566
0.0155531
0.0185018
0.022432
0.0282984
0.0122239
0.0139591
0.0165193
0.020045
0.0252431
0.0112463
0.0125855
0.0146063
0.0174936
0.0217078
0.0104338
0.0114733
0.0129705
0.0151859
0.0184055
0.00948263
0.0103876
0.0114564
0.012964
0.0148924
0.0081023
0.00895627
0.00969615
0.0103543
0.010557
0.00646932
0.0070917
0.00750115
0.00769052
0.00758788
0.0052858
0.00577698
0.00610481
0.00653743
0.00743657
0.00983339
0.0122802
0.0153899
0.0190324
0.0223505
0.0555218
0.0573976
0.0525661
0.0442974
0.0128788
0.0103104
0.00805223
0.00710698
0.00574892
0.00498591
0.00538427
0.00561464
0.00541644
0.0062107
0.00638487
0.00527603
0.00501329
0.00493084
0.00338857
0.002316
0.00211831
0.00500612
0.00453397
0.00288037
0.00223425
0.00220392
0.00524167
0.00470939
0.00326241
0.00285434
0.00288583
0.00567249
0.00523545
0.00389583
0.00357801
0.00360953
0.00623343
0.00604657
0.00468648
0.00440921
0.00443263
0.00682427
0.00706822
0.00563048
0.0053865
0.00542917
0.00731666
0.00814268
0.00688276
0.00637632
0.00643014
0.00749562
0.00869618
0.00844681
0.00722184
0.00689288
0.00747441
0.00874995
0.00910164
0.00785189
0.0071798
0.00742345
0.00857196
0.00916794
0.00821913
0.00747735
0.00775077
0.00837636
0.00904592
0.00846541
0.00784342
0.00849363
0.00827718
0.00896066
0.00872934
0.00832756
0.00941942
0.00850496
0.00896212
0.00903579
0.00888395
0.0102923
0.00900632
0.00901439
0.0093319
0.00948143
0.0109395
0.00953125
0.00927643
0.00964284
0.0101086
0.0112895
0.00991437
0.00952946
0.00990156
0.0105421
0.0113545
0.0100962
0.00966384
0.0100013
0.0107049
0.0111926
0.0100903
0.00965933
0.00993609
0.0106272
0.0108758
0.00994476
0.00953663
0.0097548
0.0103911
0.0104699
0.00971606
0.00935021
0.00952703
0.0100927
0.0100251
0.00945394
0.00915394
0.0093078
0.00982024
0.00957565
0.0091956
0.00899212
0.00915637
0.00964846
0.00914142
0.00896433
0.00889713
0.00912439
0.00965831
0.00872679
0.00876996
0.00889071
0.00925647
0.00993185
0.00832883
0.00860639
0.00897426
0.00958064
0.010553
0.00794233
0.00845678
0.00912724
0.0100974
0.0115943
0.00755878
0.00829221
0.00929929
0.0107511
0.0130542
0.00717169
0.0080793
0.00942005
0.0114414
0.0148693
0.00677561
0.00777087
0.00934259
0.0118005
0.0161331
0.00638233
0.00736178
0.00899973
0.0116319
0.0163154
0.00601414
0.00688804
0.00842306
0.0109428
0.0153876
0.00568458
0.00639878
0.00771028
0.00989914
0.0136912
0.00539774
0.00593038
0.00695267
0.00867535
0.01149
0.00519628
0.00553716
0.00621319
0.00731738
0.00874198
0.00507934
0.00536386
0.00576895
0.00632016
0.00684034
0.00528405
0.00563354
0.00594796
0.00628701
0.00659184
0.0107733
0.0129608
0.0157585
0.0193395
0.0235437
0.0540537
0.0579703
0.0555503
0.0496284
0.0154313
0.0137557
0.011351
0.00926156
0.00824987
0.00807167
0.00851547
0.0085896
0.00763073
0.00881992
0.00797316
0.00580784
0.00771492
0.0077179
0.00367639
0.00173169
0.00810583
0.00699962
0.00244338
0.00103642
0.000852914
0.00868809
0.00702221
0.00238414
0.0012222
0.00110964
0.00952124
0.00771931
0.0026839
0.00158923
0.00147619
0.010373
0.00903517
0.0031625
0.00205855
0.00195422
0.0110203
0.0109977
0.00391168
0.00272885
0.00267952
0.0112453
0.0133444
0.00605148
0.0038642
0.00379807
0.0106577
0.0141931
0.0121764
0.00717641
0.00545479
0.00966533
0.0135601
0.0143633
0.00983313
0.006881
0.00851635
0.0122772
0.0140034
0.0108508
0.00791504
0.00762156
0.0108175
0.0127892
0.0108333
0.00848733
0.0070369
0.00956791
0.0114788
0.0104517
0.00883283
0.00669815
0.0085807
0.01034
0.0100155
0.00907599
0.00652561
0.00782308
0.00941988
0.0096047
0.00924874
0.00644236
0.00726237
0.00869253
0.00922898
0.00934778
0.006389
0.00686993
0.00810818
0.00888018
0.00935454
0.00632824
0.00657885
0.00762072
0.00854267
0.00926815
0.00624291
0.00634574
0.00719569
0.00820295
0.00909859
0.00612957
0.00614506
0.00681763
0.00785134
0.00885715
0.00599243
0.00596374
0.00648022
0.00748117
0.00855368
0.00583886
0.00580035
0.00620617
0.00710353
0.00819788
0.00567685
0.00565528
0.00598804
0.00678038
0.00784081
0.00551339
0.00553022
0.00582677
0.00653825
0.00755439
0.0053535
0.0054277
0.0057273
0.0063981
0.00739184
0.00520016
0.00534873
0.00569547
0.00639012
0.00743195
0.00505568
0.00529346
0.0057397
0.0065639
0.00781526
0.00491967
0.00525372
0.00585134
0.00695102
0.00871612
0.00479277
0.00522227
0.00603067
0.00764753
0.0105818
0.004667
0.00515837
0.00615802
0.00827509
0.0124032
0.00453977
0.00503874
0.00614936
0.00858397
0.0135731
0.00441609
0.00486731
0.00597962
0.00847497
0.0137698
0.00430364
0.00466626
0.00567298
0.00797111
0.0130006
0.00421455
0.00447575
0.00530718
0.00724249
0.0116066
0.00417095
0.00434159
0.0049326
0.00626065
0.00892646
0.00431372
0.00445824
0.00483593
0.00561416
0.0068827
0.0049857
0.00526585
0.00560253
0.00609749
0.00674209
0.0103207
0.0122677
0.0148664
0.018379
0.0227873
0.0456363
0.0513312
0.0510989
0.0473115
0.0187519
0.0182251
0.0162326
0.0142781
0.0127394
0.0131401
0.0145564
0.0141364
0.0132749
0.0150065
0.00974627
0.00672197
0.014937
0.0141518
0.00409678
0.00150914
0.0171556
0.0133948
0.00271001
0.00060764
0.0196897
0.0140886
0.0025538
0.000605402
0.000430677
0.0225625
0.0161904
0.00272845
0.00076061
0.000587167
0.0245956
0.0197824
0.00308038
0.000979438
0.000830892
0.0250523
0.0254443
0.0038207
0.00143317
0.0013637
0.023649
0.0327809
0.00768707
0.00311632
0.002942
0.020657
0.0338322
0.0280582
0.0135465
0.00803173
0.0180941
0.0307884
0.0346656
0.0226585
0.0126877
0.0162945
0.0266971
0.0326731
0.0259294
0.0167895
0.0151923
0.0231598
0.0283981
0.0248294
0.01778
0.0145722
0.0205822
0.024608
0.0226038
0.0175815
0.0141908
0.0188133
0.0218142
0.0205735
0.0170683
0.0139304
0.017607
0.019862
0.0189814
0.0163838
0.0137334
0.0167557
0.01851
0.0178022
0.0157023
0.0135702
0.0160967
0.0175566
0.0169553
0.015179
0.0134232
0.0155483
0.0168563
0.0163584
0.0148328
0.01328
0.0150437
0.0163012
0.015935
0.014629
0.0131306
0.0145226
0.0157998
0.0156091
0.0145241
0.012966
0.013914
0.0152381
0.0152841
0.0144472
0.0127807
0.0134775
0.0145301
0.0148296
0.0142681
0.0125689
0.0131383
0.01388
0.0142486
0.0141243
0.0123261
0.0128373
0.0134456
0.013888
0.0140867
0.0120508
0.0125438
0.013118
0.0136643
0.0141515
0.0117438
0.0122431
0.0128418
0.0135386
0.0143311
0.0114102
0.0119347
0.0126034
0.0135289
0.0147033
0.0110548
0.0116184
0.0123968
0.0137087
0.0155719
0.0106917
0.0113183
0.0123083
0.0143233
0.0182158
0.0103112
0.010986
0.0121775
0.0147029
0.0205534
0.0099032
0.0105929
0.0119048
0.0146958
0.0219292
0.00947108
0.0101559
0.0115043
0.0143513
0.0223736
0.00901734
0.00969342
0.0110012
0.0136994
0.0219476
0.008536
0.00922588
0.0104712
0.0130144
0.0216997
0.00797553
0.00866608
0.00966925
0.0114947
0.0163892
0.00734732
0.00803401
0.00878376
0.00983705
0.0115234
0.0067723
0.0074992
0.00817536
0.00894335
0.00978305
0.00994608
0.0123163
0.0154328
0.0195767
0.0246413
0.0200963
0.0244805
0.025566
0.0243787
0.03361
0.0391452
0.0383471
0.0351507
0.0407317
0.0450883
0.0374991
0.0313704
0.047245
0.0379723
0.00924474
0.00637672
0.0557659
0.0314758
0.00394157
0.00100268
0.0655214
0.0295551
0.00304827
0.000360878
0.0769008
0.033421
0.00299816
0.000337384
0.0898009
0.0410016
0.00315806
0.000384828
0.000229377
0.104807
0.0530296
0.0034873
0.00045785
0.000331484
0.122335
0.0738015
0.0042544
0.000759576
0.000727028
0.142134
0.109585
0.0100043
0.00314822
0.0029326
0.160433
0.15024
0.0793752
0.0339566
0.0168638
0.170795
0.173573
0.128354
0.0731961
0.0345806
0.174623
0.182613
0.1544
0.109382
0.0708712
0.173321
0.181024
0.16037
0.122964
0.0865325
0.168768
0.173925
0.156023
0.123193
0.0883098
0.162862
0.165166
0.148292
0.118649
0.0859353
0.156733
0.156711
0.140475
0.113544
0.0836549
0.150946
0.149345
0.133831
0.109373
0.0823503
0.145706
0.143258
0.128699
0.106581
0.0821955
0.141017
0.138383
0.125062
0.105239
0.0833157
0.136763
0.134558
0.122793
0.105327
0.0858291
0.132777
0.13161
0.121772
0.10684
0.0898774
0.12887
0.129348
0.121895
0.109832
0.0957079
0.124821
0.127097
0.122988
0.114406
0.103681
0.120421
0.124827
0.124503
0.12029
0.113668
0.115473
0.122385
0.126028
0.126872
0.125832
0.109788
0.119502
0.127471
0.134164
0.140214
0.103182
0.11587
0.128529
0.142097
0.157435
0.0954413
0.111032
0.128393
0.149531
0.174852
0.0863834
0.104501
0.126238
0.155845
0.194377
0.0759233
0.0958441
0.120909
0.160041
0.206355
0.0639847
0.0839635
0.109302
0.151447
0.19652
0.0513479
0.0698609
0.0934751
0.133897
0.175896
0.0389774
0.054859
0.0754767
0.111478
0.149882
0.0277226
0.0400847
0.0565799
0.0859397
0.11958
0.018318
0.0267967
0.0383562
0.0587163
0.0784724
0.0112633
0.0159929
0.0215528
0.0299229
0.041251
0.00752817
0.0104645
0.0144638
0.0204229
0.0279158
0.00711487
0.0095939
0.0129268
0.0174233
0.0228485
0.00428799
0.00574586
0.00784929
0.0106481
0.013834
0.00220832
0.00348225
0.00357102
0.000377825
0.00332687
0.000176419
0.00330601
0.000174664
0.00331001
0.000182306
0.0033831
0.000199367
0.000118036
0.00352198
0.000321196
0.000295498
0.00237116
0.00352162
0.00356238
0.000669687
0.00123351
0.00122885
9.45113e-05
0.00121099
6.21315e-05
0.00121627
6.53466e-05
0.00121793
6.64702e-05
0.00122402
7.22014e-05
0.00122543
8.62259e-05
7.3406e-05
0.000676924
0.00121576
0.00121589
0.000392369
0.000606393
0.000930749
0.00132833
0.00172408
0.00106131
0.00136662
0.00176045
0.00231585
0.00288496
0.00133944
0.00152252
0.00171678
0.00135753
0.00171011
0.00132418
0.000646246
0.00117774
0.000448514
0.00124972
0.000499811
0.00146052
0.000645185
0.00177155
0.000861947
0.00220987
0.00117915
0.00280709
0.00163715
0.00366278
0.0023364
0.00456168
0.00523695
0.00279558
0.00175848
0.0011329
0.00524865
0.0055504
0.00507856
0.00395076
0.0031172
0.00580359
0.00587858
0.00538927
0.00463044
0.00401811
0.00628805
0.00623049
0.00579087
0.0052322
0.00476989
0.00672438
0.00658683
0.00621373
0.00579957
0.00545464
0.00710059
0.00690573
0.00659304
0.00628783
0.00603722
0.00738476
0.00713909
0.00687041
0.0066421
0.00645503
0.00754629
0.00724918
0.00700189
0.00681155
0.00663595
0.00757462
0.00722508
0.00697507
0.00677826
0.00653757
0.00749081
0.00709201
0.00682414
0.00659039
0.00622752
0.00735492
0.00690511
0.00662512
0.00637369
0.00589397
0.007215
0.00672239
0.00645796
0.00624677
0.00575732
0.00710592
0.00657864
0.00635082
0.00621485
0.0058394
0.00704995
0.00649238
0.00630103
0.00622286
0.00593715
0.00706235
0.0064982
0.00634767
0.00633391
0.00615746
0.00715985
0.00662263
0.00653016
0.00661348
0.00660998
0.00735708
0.00688445
0.00688624
0.00712929
0.0073944
0.00765907
0.00730101
0.00745784
0.00797489
0.0087734
0.00805286
0.00788248
0.00827895
0.00925818
0.0114647
0.00852064
0.00862412
0.00940474
0.0113271
0.0196824
0.00902157
0.00943136
0.0107663
0.0144503
0.0514108
0.00950683
0.0101671
0.0120991
0.0172744
0.0734952
0.00991538
0.0107445
0.0131552
0.0190608
0.0801525
0.0101888
0.0111263
0.0138115
0.0197782
0.0782912
0.0102307
0.0112594
0.0140254
0.0196124
0.0684404
0.0098354
0.0109766
0.0136807
0.0188761
0.062684
0.00861232
0.00994241
0.01252
0.0169704
0.0379851
0.00635014
0.00766684
0.00980093
0.0125545
0.0183814
0.00370228
0.0047959
0.0063106
0.0080148
0.00963788
0.00138394
0.00192005
0.00262577
0.00342199
0.00424841
0.000839463
0.00123245
0.00173269
0.00231709
0.00296353
0.000680725
0.000795398
0.000891349
0.0010012
0.00102515
0.000744518
0.000847392
0.00104371
0.0025207
0.0029727
0.000778722
0.000861303
0.00152311
0.000803862
0.00099919
0.000804346
0.00103528
0.000848334
0.00124712
0.000915572
0.00156493
0.00101187
0.0020219
0.0011494
0.00265703
0.00132541
0.00368195
0.0014402
0.00238127
0.00392562
0.00282413
0.00209764
0.00150656
0.00188866
0.0021679
0.00186784
0.00160662
0.0015448
0.00171829
0.00177524
0.00163075
0.00148038
0.00156272
0.00165939
0.00165522
0.00155465
0.00144474
0.00157419
0.00163859
0.00161858
0.00153842
0.00144744
0.00158892
0.00163806
0.00161706
0.00155067
0.00147141
0.00160957
0.00165093
0.0016332
0.00157712
0.00150634
0.00163373
0.00167006
0.00165471
0.00160511
0.00154196
0.00165649
0.00168691
0.00166959
0.00162233
0.00157608
0.00167279
0.00169341
0.00166773
0.00161974
0.00162203
0.00168007
0.00168606
0.00164788
0.00160132
0.00171819
0.00167885
0.00166861
0.00162012
0.00157844
0.00181185
0.00167276
0.00164888
0.00159625
0.00155814
0.00185891
0.00166414
0.00163058
0.00157732
0.00153809
0.00181901
0.00165649
0.00161864
0.00156821
0.00152771
0.00175535
0.00165455
0.0016192
0.00157626
0.00153931
0.00171517
0.00166353
0.00163807
0.00160903
0.00158605
0.00176503
0.00168868
0.00168061
0.00167453
0.00168257
0.00192905
0.00173424
0.0017509
0.00178174
0.00186201
0.00246255
0.0018015
0.00185172
0.00194998
0.00231644
0.00656889
0.00188637
0.00197739
0.00221974
0.00428174
0.0543793
0.0019782
0.00210258
0.00247861
0.00595746
0.0679864
0.00206042
0.00220018
0.00263904
0.00661719
0.0644092
0.00211244
0.00225051
0.00268592
0.00653975
0.0584101
0.00211917
0.00224903
0.00263813
0.00593668
0.0504062
0.00208207
0.00220068
0.00253614
0.00535779
0.0483923
0.00208133
0.00216284
0.00244329
0.00416249
0.0207457
0.00211874
0.00220751
0.00236338
0.00317352
0.00784852
0.00194826
0.00209977
0.00227346
0.0025834
0.00361644
0.00293468
0.00358901
0.00442059
0.00545137
0.00679476
0.00122049
0.00171676
0.00230291
0.00296557
0.0036679
0.000791289
0.000909045
0.00101128
0.00110584
0.0010938
0.000791429
0.000913141
0.00119827
0.00293381
0.00332642
0.000811243
0.000945183
0.00191795
0.000833876
0.000892082
0.00125833
0.000906023
0.00120044
0.000961071
0.00137841
0.00103793
0.00166706
0.00114545
0.00209759
0.00129854
0.00270514
0.00148391
0.00382551
0.00154288
0.0025656
0.00487069
0.00441127
0.00151508
0.00202861
0.0024972
0.00235475
0.00214612
0.00145547
0.00174252
0.0018633
0.0017665
0.00163284
0.00139479
0.00157054
0.00159975
0.00151752
0.00141055
0.00135421
0.00146999
0.00147326
0.00140142
0.00130557
0.00134213
0.00142617
0.00142197
0.00135692
0.00126491
0.00135605
0.00142361
0.00141639
0.00135467
0.00126381
0.00138827
0.00144605
0.00143537
0.00137508
0.0012917
0.00142775
0.00147577
0.00145873
0.00140245
0.00135868
0.00146255
0.00149664
0.00147034
0.00142822
0.00150313
0.00148371
0.00149999
0.00146497
0.00144562
0.00167639
0.00148945
0.00148882
0.00144924
0.00144625
0.00175351
0.00148508
0.00147302
0.00143347
0.00143739
0.00178872
0.0014753
0.00145626
0.00141753
0.00141825
0.00172502
0.00146528
0.00144386
0.00140763
0.00140438
0.00166845
0.00146163
0.00144279
0.00141204
0.0014095
0.00166132
0.00147067
0.00145874
0.00143721
0.00144342
0.00171548
0.00149858
0.00149666
0.0014899
0.00152195
0.00187728
0.00155019
0.00156017
0.00158194
0.00171203
0.00264092
0.00162901
0.00165441
0.00175674
0.00246573
0.0108764
0.00173209
0.00178087
0.0021555
0.0070364
0.105469
0.00184563
0.00190858
0.00254394
0.0107272
0.131032
0.00194262
0.00199617
0.00272824
0.0117272
0.123586
0.00198436
0.00201263
0.00270154
0.0111024
0.111078
0.001935
0.0019406
0.00249308
0.00931629
0.0919803
0.00178102
0.0017814
0.00219525
0.00764625
0.0807614
0.00158715
0.00160091
0.00187932
0.00482066
0.0348146
0.00152117
0.00153253
0.00167741
0.00288339
0.0113941
0.00161582
0.00166575
0.00176906
0.00218646
0.0040438
0.00369916
0.00429733
0.00501719
0.00591437
0.00718818
0.00182742
0.00242035
0.00308376
0.00382364
0.00452947
0.000958903
0.0010843
0.00120029
0.00129703
0.00128064
0.000897117
0.00103271
0.0013949
0.00333542
0.00365657
0.000904448
0.00106806
0.00231627
0.000925096
0.00101847
0.00157195
0.000982321
0.00104742
0.0013719
0.00112293
0.00147507
0.00122487
0.00169569
0.00136795
0.00209505
0.00157067
0.00274332
0.00180936
0.00420061
0.00183869
0.00298113
0.00662064
0.00679019
0.00174128
0.00234971
0.00296769
0.00292101
0.00162137
0.00194294
0.00205307
0.00196468
0.00183601
0.0015322
0.00170801
0.00171852
0.0016316
0.00152266
0.0014912
0.00159187
0.00158
0.00150172
0.00140087
0.00149578
0.00155798
0.00153825
0.00146467
0.00136572
0.00153148
0.00157175
0.00154521
0.00147299
0.00137734
0.00158269
0.00160705
0.0015732
0.0015046
0.00143062
0.00163337
0.00164206
0.0016018
0.00155036
0.00155503
0.00167067
0.00166305
0.00162256
0.00161573
0.00180041
0.00168832
0.00166578
0.00163214
0.00167861
0.00202947
0.00168983
0.00165659
0.0016294
0.0016999
0.00208388
0.00168509
0.00164604
0.00161834
0.00168377
0.00211087
0.00168009
0.0016389
0.00160774
0.00165084
0.002003
0.00168128
0.00164162
0.00160906
0.00163322
0.00193141
0.00169603
0.00166023
0.00162873
0.00164127
0.00191239
0.00173107
0.00169927
0.00167102
0.00168232
0.00195777
0.00179313
0.00176297
0.00174198
0.00177783
0.00214668
0.00188783
0.00185575
0.00186135
0.00205351
0.00339161
0.00201915
0.00198579
0.00211144
0.00341232
0.0191007
0.00218174
0.0021657
0.0028219
0.0131893
0.19061
0.0023546
0.00234517
0.00351011
0.0200876
0.220365
0.00249532
0.00245721
0.00378424
0.0208363
0.190847
0.00254826
0.00246238
0.00368336
0.0189942
0.166873
0.00246401
0.00233547
0.00325838
0.0152081
0.134295
0.00222096
0.00208568
0.00271463
0.0117789
0.111078
0.00186657
0.00177797
0.00213638
0.0068335
0.0504417
0.001601
0.00156235
0.00174399
0.00358883
0.016764
0.00163033
0.00164858
0.00175535
0.00233339
0.00517402
0.00462132
0.00518984
0.00580417
0.0065341
0.00765994
0.00260482
0.0032752
0.00400263
0.00481554
0.00550618
0.00114754
0.00128299
0.00141774
0.00152161
0.00149571
0.0010213
0.00117339
0.00162458
0.00376191
0.00398994
0.00102007
0.0012117
0.00275935
0.0010438
0.00116873
0.00194301
0.0011121
0.00121345
0.0016089
0.00120219
0.00131572
0.00162965
0.001452
0.00180871
0.00164833
0.00230992
0.00191306
0.00317844
0.00221269
0.00525275
0.00218236
0.00364171
0.0088395
0.00954532
0.00200053
0.00269291
0.00336214
0.00336233
0.00183204
0.00213308
0.00219207
0.00209845
0.00173949
0.00187226
0.00184984
0.00175441
0.00164471
0.00171877
0.00177388
0.00173468
0.00164568
0.00154055
0.00174973
0.00176537
0.00171556
0.00162762
0.00152504
0.00180551
0.00179532
0.00173448
0.00164905
0.00156215
0.00186651
0.00183629
0.00176832
0.00169732
0.00166484
0.00191814
0.00187189
0.00180571
0.00177713
0.00187273
0.00195313
0.00189689
0.00184798
0.00189768
0.00220334
0.00197128
0.00191144
0.00188962
0.00202069
0.00247442
0.00197999
0.00191939
0.00190864
0.00205317
0.00248774
0.00198957
0.00192771
0.00190458
0.00200548
0.00246606
0.00200514
0.00194407
0.00190867
0.00195635
0.00229164
0.00203318
0.00197429
0.00193217
0.0019435
0.00219131
0.00208075
0.00202189
0.00197478
0.00196336
0.0021605
0.00215514
0.002091
0.00203875
0.00201915
0.00220644
0.00226387
0.00218574
0.00213065
0.00214047
0.00245125
0.00241355
0.00231307
0.00228371
0.00253794
0.00440494
0.00260583
0.00248453
0.0026394
0.00482107
0.0306613
0.00283046
0.00273277
0.00383849
0.0222335
0.280401
0.00305438
0.00297544
0.00501315
0.033514
0.311328
0.00321737
0.00310634
0.00544246
0.0343728
0.269646
0.00325473
0.00308055
0.00521612
0.0305409
0.227096
0.0031182
0.0028731
0.00443653
0.0235018
0.177659
0.00279506
0.00252092
0.00351678
0.0172957
0.139399
0.00230351
0.00208861
0.00257978
0.00958831
0.0661832
0.00183813
0.00173409
0.00195273
0.00458698
0.0227038
0.00174601
0.00174246
0.00185587
0.0025985
0.006529
0.00584884
0.00639576
0.00688139
0.0074019
0.0083883
0.00348155
0.00421304
0.00500311
0.00590017
0.00658338
0.00134869
0.00149901
0.00166099
0.00177418
0.00173367
0.00115901
0.00133471
0.00189726
0.0042399
0.00435074
0.00115305
0.00137961
0.00327511
0.00118612
0.0013499
0.00238239
0.00126771
0.00141409
0.00197513
0.00137643
0.00154816
0.00194081
0.00150517
0.0017326
0.00219902
0.00199487
0.00294923
0.002318
0.00418324
0.00268029
0.00699819
0.00255921
0.00440826
0.0111697
0.0122834
0.00228829
0.00300605
0.00362884
0.00364463
0.00209099
0.00233027
0.00232784
0.00222722
0.00201771
0.00209019
0.00203537
0.00192952
0.00202839
0.00202928
0.0019582
0.00185412
0.00174356
0.0020855
0.00204832
0.00196176
0.00185554
0.00175453
0.00215589
0.00209098
0.00199221
0.00189448
0.00183117
0.00222204
0.00213815
0.00203794
0.00197289
0.00200094
0.00227681
0.00218287
0.0020974
0.00210031
0.00229483
0.00231946
0.00222517
0.00217028
0.00226842
0.00266202
0.00235376
0.00226584
0.00224422
0.00242227
0.0029219
0.0023861
0.00230307
0.00228857
0.00246067
0.00290113
0.00242385
0.00233926
0.00229841
0.00237998
0.00279442
0.00247172
0.00238647
0.0023264
0.00233177
0.00256867
0.00253591
0.00244751
0.00237575
0.00233825
0.00246685
0.00262358
0.00252432
0.00243943
0.00237519
0.00244788
0.00274306
0.00262206
0.00251979
0.00244465
0.00251226
0.00290166
0.00274465
0.0026263
0.00259007
0.00283638
0.00310524
0.00290202
0.00281188
0.00313952
0.0057111
0.00334851
0.00311062
0.00330709
0.00668028
0.0440726
0.00361524
0.00343212
0.00516314
0.0321728
0.336084
0.00385843
0.00374241
0.00710895
0.0502696
0.376261
0.00400549
0.00388185
0.0078396
0.0527146
0.335411
0.00399599
0.00380116
0.00746109
0.0472076
0.289046
0.00379559
0.00348271
0.00614421
0.0356435
0.219993
0.00340892
0.00301079
0.00464364
0.0251121
0.165465
0.00282697
0.00245452
0.00318091
0.013431
0.0817453
0.00212427
0.0019384
0.00221187
0.00590033
0.029198
0.00189652
0.0018694
0.00198611
0.00292521
0.00816709
0.00748408
0.00800444
0.00830535
0.00854554
0.00946712
0.00439886
0.00518333
0.0060459
0.00704966
0.00774867
0.00155908
0.00173009
0.00192996
0.00205354
0.00199341
0.00131033
0.00151755
0.00222005
0.0047804
0.00474821
0.0013029
0.00157371
0.00388494
0.0013509
0.00156478
0.00290634
0.0014524
0.00165911
0.00252111
0.00158034
0.00182291
0.00247373
0.0017353
0.00206583
0.00290893
0.00189459
0.00239367
0.00397875
0.00275713
0.00563589
0.00319952
0.00912589
0.00297384
0.0051389
0.0134081
0.0148103
0.00262218
0.00329594
0.00380984
0.00382703
0.00242087
0.00257868
0.00252599
0.00242875
0.00238566
0.002396
0.00231362
0.00219677
0.00243341
0.00238063
0.00227313
0.00214636
0.00251379
0.002423
0.00229592
0.00216736
0.00206964
0.00259857
0.00248237
0.00234569
0.00223486
0.00219803
0.00267875
0.00254808
0.00241686
0.00235353
0.00243291
0.00275101
0.0026169
0.00250832
0.00252472
0.00277931
0.00281739
0.00268908
0.00261434
0.002722
0.00313959
0.00288205
0.00276293
0.00271549
0.00287912
0.00334986
0.00294949
0.00283372
0.00278131
0.00290754
0.00329417
0.0030243
0.00290222
0.00281334
0.00282732
0.00314203
0.00311172
0.00298083
0.00286694
0.00279952
0.00291142
0.00321857
0.00307234
0.00294002
0.00283095
0.00284016
0.0033516
0.0031775
0.00302078
0.00288118
0.0028437
0.00351887
0.00330229
0.00311136
0.00295659
0.00292906
0.00372505
0.00344845
0.00322711
0.00312221
0.00333851
0.0039723
0.00362794
0.00344622
0.00385314
0.00721769
0.00424611
0.00386825
0.00412493
0.00888237
0.0555855
0.00452644
0.0042658
0.00677988
0.0416641
0.353756
0.00475646
0.00464996
0.00964543
0.0655364
0.413594
0.00485901
0.00479743
0.0108046
0.0701347
0.381465
0.0047853
0.00464728
0.0103215
0.0639839
0.337055
0.00452004
0.00418671
0.00834916
0.0484529
0.256958
0.00409121
0.00357179
0.00607725
0.0335074
0.188474
0.00350158
0.00290213
0.00395283
0.0177379
0.0965937
0.00246378
0.00215964
0.00247942
0.00739929
0.0360813
0.00208181
0.00201975
0.00212405
0.00328484
0.0101454
0.00963043
0.0101214
0.0101628
0.0100309
0.011064
0.00530826
0.00614889
0.0071029
0.00824333
0.00899304
0.00177737
0.00197539
0.00222577
0.00236022
0.00227484
0.00147674
0.00172308
0.00260017
0.00539195
0.00518943
0.00147113
0.00179541
0.00461138
0.00153875
0.00181342
0.0035676
0.001666
0.00194484
0.00323124
0.00182103
0.00215014
0.00324026
0.00199963
0.00243948
0.00389511
0.00218588
0.00282143
0.00527017
0.00236346
0.00321723
0.00734253
0.00377138
0.0113119
0.00344389
0.00580103
0.0155202
0.0170693
0.00302367
0.00360739
0.00399228
0.00407556
0.00284505
0.00292261
0.00286209
0.00276194
0.00285778
0.00281357
0.00269551
0.00255367
0.00293876
0.00283201
0.00268086
0.00252349
0.00304562
0.00290039
0.00272783
0.00257075
0.00315585
0.00298661
0.00280642
0.00267371
0.0026531
0.00326356
0.00308296
0.00291161
0.00283264
0.00294253
0.00336793
0.00318702
0.00303918
0.0030356
0.00329543
0.00347163
0.00329739
0.00317799
0.00324549
0.00361624
0.003578
0.00340995
0.0033053
0.00339545
0.00376536
0.00369005
0.0035188
0.00339567
0.0034221
0.00368867
0.00381136
0.00362434
0.00345558
0.00336691
0.00357167
0.00394777
0.00373855
0.00353498
0.00336821
0.00338252
0.00410579
0.0038636
0.00362836
0.00342209
0.00336085
0.00429089
0.00399909
0.00372267
0.00348134
0.00339623
0.00450776
0.00414801
0.00382262
0.00355908
0.00349856
0.00475615
0.0043132
0.00394817
0.0037515
0.00401117
0.00502974
0.00450695
0.00420946
0.004705
0.00890728
0.00531148
0.0047762
0.00511108
0.0112193
0.0634676
0.00558121
0.00524734
0.00850648
0.0475829
0.342409
0.005773
0.0057223
0.0124918
0.0778317
0.42766
0.0058056
0.00589262
0.0144256
0.0862369
0.409139
0.0056438
0.00566142
0.0140354
0.0806783
0.369979
0.0053046
0.00501299
0.0113157
0.0620352
0.286515
0.00485753
0.00422219
0.00804303
0.042653
0.207828
0.00431368
0.00346718
0.00487597
0.022536
0.110208
0.0031865
0.00251953
0.00276706
0.00902964
0.043039
0.00235692
0.00223461
0.00228347
0.0036677
0.0124661
0.0123129
0.0127757
0.0124919
0.0118934
0.0133553
0.00617274
0.00708285
0.00815299
0.00946338
0.0103068
0.00200312
0.0022346
0.00254942
0.002695
0.00257783
0.00165975
0.00195192
0.00304138
0.00608024
0.00567962
0.00165969
0.00204517
0.00546316
0.00175162
0.00209442
0.00437314
0.00190998
0.00226716
0.00410499
0.0020987
0.00251862
0.0042317
0.0023093
0.00285644
0.00505813
0.00252902
0.00327195
0.00665685
0.0027562
0.00372599
0.00907929
0.00302252
0.00440174
0.0133329
0.00398727
0.00644064
0.0175682
0.0191742
0.00351491
0.00399061
0.00440225
0.00455789
0.00338401
0.00340551
0.00331537
0.00319203
0.00343568
0.00333405
0.00316947
0.00299112
0.00355149
0.00338288
0.00317859
0.00298157
0.00369179
0.00348295
0.00325528
0.00305961
0.00383735
0.00360456
0.00336939
0.00319989
0.0039842
0.00374067
0.00351364
0.00339426
0.0034924
0.00413253
0.00388809
0.00367985
0.00362081
0.0038296
0.00428474
0.0040434
0.00385282
0.00383768
0.00410185