/*--------------------------------*- C++ -*----------------------------------*\
| =========                 |                                                 |
| \\      /  F ield         | OpenFOAM: The Open Source CFD Toolbox           |
|  \\    /   O peration     | Version:  2.3.1                                 |
|   \\  /    A nd           | Web:      www.OpenFOAM.org                      |
|    \\/     M anipulation  |                                                 |
\*---------------------------------------------------------------------------*/
FoamFile
{
    version     2.0;
    format      ascii;
    class       volScalarField;
    location    "600";
    object      k;
}
// * * * * * * * * * * * * * * * * * * * * * * * * * * * * * * * * * * * * * //

dimensions      [0 2 -2 0 0 0 0];

internalField   nonuniform List<scalar> 
6852
(
0.0423335
0.0434676
0.0414453
0.0377492
0.0411531
0.0393749
0.0357981
0.0317872
0.0400467
0.0359945
0.0311362
0.0268023
0.0235943
0.0338926
0.0280639
0.0233955
0.020289
0.0181991
0.0294728
0.0244402
0.0206828
0.0184685
0.0169413
0.0331088
0.0281622
0.0244822
0.0222917
0.0206123
0.0385188
0.0332105
0.0292551
0.0268968
0.0250641
0.0450845
0.0392256
0.0348778
0.0323802
0.0304671
0.0528035
0.0462791
0.0414854
0.0389466
0.0370575
0.0616723
0.0544337
0.0491686
0.0467216
0.0449986
0.0718943
0.0640509
0.0583146
0.0560573
0.0546729
0.0836818
0.0758542
0.0700282
0.0679326
0.0669509
0.0958097
0.089204
0.0838262
0.0820997
0.0817274
0.106289
0.102774
0.098603
0.0976147
0.0981156
0.113803
0.113781
0.112307
0.112464
0.114016
0.117422
0.12042
0.121779
0.123467
0.125838
0.117044
0.122289
0.125838
0.128901
0.132071
0.113241
0.11989
0.124934
0.129047
0.132849
0.106956
0.114271
0.120171
0.12496
0.129171
0.0991938
0.106628
0.112894
0.118036
0.122453
0.0908167
0.098028
0.104341
0.109614
0.114103
0.0824484
0.0892679
0.0954622
0.100755
0.105264
0.0744686
0.080849
0.0868729
0.0921645
0.0967137
0.067054
0.0730193
0.0788909
0.0842201
0.0888804
0.0601855
0.0657812
0.0715778
0.0770422
0.0819119
0.0539638
0.0592063
0.0649092
0.0705206
0.0756878
0.0482724
0.0531998
0.0587878
0.0645422
0.0700539
0.0429749
0.0476386
0.0530737
0.0589116
0.0647422
0.0379384
0.0423967
0.0476312
0.0534388
0.059469
0.033062
0.0373645
0.042345
0.0479572
0.0539388
0.0283096
0.0324771
0.037153
0.0423899
0.0479862
0.0237614
0.0277572
0.0320822
0.0367966
0.0416434
0.0196604
0.02335
0.0272408
0.0313052
0.0350883
0.0164605
0.0196437
0.0230118
0.0264564
0.029403
0.0144578
0.0170468
0.019827
0.022725
0.0253056
0.0131421
0.0154574
0.0181012
0.0210522
0.0239254
0.0122006
0.0144221
0.0169724
0.0198058
0.0225245
0.0112224
0.0134079
0.0157789
0.0182693
0.0205031
0.0103803
0.0123851
0.0144928
0.0165625
0.0182395
0.00989797
0.0117135
0.0136372
0.0154934
0.0169128
0.0109172
0.0131128
0.015601
0.0180139
0.0196739
0.0358518
0.0359148
0.0335093
0.0301119
0.0184427
0.0167135
0.0150693
0.0138753
0.0127943
0.0112
0.0105492
0.0105269
0.0104978
0.0107023
0.0109025
0.0106239
0.0106498
0.00979154
0.00988947
0.0100774
0.0105066
0.0112445
0.0110433
0.0116983
0.0127761
0.0141001
0.0151424
0.0128755
0.0141465
0.0160545
0.0179781
0.0192341
0.0147502
0.0164789
0.0189427
0.0212079
0.0225545
0.0165605
0.0186161
0.0214642
0.0239674
0.0253509
0.0181858
0.0204077
0.0234784
0.0261623
0.0275685
0.0195191
0.0216295
0.0245792
0.0272452
0.0286752
0.0205787
0.022272
0.0246807
0.02697
0.028321
0.0217934
0.0227519
0.0246121
0.0265068
0.0277192
0.0237144
0.0233412
0.0247662
0.0263593
0.0274634
0.0258692
0.0246701
0.0251773
0.026554
0.0276063
0.0278811
0.0265261
0.0263577
0.0274569
0.0286862
0.0294357
0.0282368
0.0279009
0.0288484
0.0301898
0.0303516
0.0294201
0.0291969
0.0300536
0.0314313
0.03061
0.0299624
0.0298748
0.0307088
0.0320515
0.030304
0.0299122
0.0299477
0.030752
0.0320371
0.0295784
0.0294027
0.0295403
0.0303064
0.031513
0.0285843
0.0285906
0.0288153
0.0295422
0.0306612
0.0274511
0.0276181
0.0279257
0.0286256
0.0296644
0.0262752
0.0265952
0.0269944
0.0276928
0.0286762
0.0251143
0.0255915
0.0261056
0.0268407
0.0278115
0.0240076
0.0246488
0.025307
0.0261272
0.0271444
0.0229707
0.0237834
0.0246179
0.0255796
0.0267212
0.0219976
0.0229902
0.0240313
0.0251945
0.0265587
0.0210831
0.0222479
0.0235218
0.0249449
0.0266375
0.0202204
0.0215309
0.0230409
0.0247663
0.0268989
0.0194073
0.0208058
0.0225228
0.0245595
0.0272212
0.018661
0.020048
0.0218869
0.0241765
0.0273534
0.018035
0.0192673
0.0210552
0.0233985
0.0267408
0.0176264
0.018567
0.0200867
0.0222217
0.0252881
0.0174832
0.0181122
0.0192227
0.0209473
0.0234828
0.0174932
0.0179858
0.0187208
0.0199745
0.0218792
0.0171591
0.0178166
0.018426
0.0192612
0.0203085
0.0160607
0.016912
0.0175326
0.0180304
0.0180162
0.0143125
0.0150444
0.015449
0.0155672
0.0151979
0.0123883
0.012977
0.0132286
0.0132967
0.0134994
0.01146
0.0132898
0.015448
0.0177982
0.019811
0.0363377
0.0371516
0.0350363
0.0312584
0.0143003
0.0126941
0.0114034
0.0108883
0.00957252
0.00930073
0.00979653
0.00998237
0.00923087
0.00986255
0.00987031
0.00854476
0.00845345
0.00813818
0.00678016
0.00608526
0.006469
0.00853038
0.00827274
0.00771338
0.00864091
0.00968291
0.00925425
0.00954294
0.0101856
0.0123749
0.0138062
0.0102802
0.0111284
0.0126162
0.0155278
0.0171295
0.0113508
0.0126864
0.0147006
0.0181427
0.0198703
0.0122516
0.0139691
0.0162224
0.0200574
0.0219271
0.0127902
0.0146452
0.0166242
0.0201092
0.0220833
0.0129622
0.0147289
0.0165739
0.0189419
0.0205555
0.0129681
0.0145702
0.0163202
0.0180507
0.0192488
0.0129611
0.0143974
0.0160795
0.0175738
0.0185599
0.0131462
0.0142934
0.0159437
0.017411
0.0183651
0.0134576
0.0142708
0.0159153
0.0174444
0.0184607
0.013796
0.0143854
0.0159364
0.0175446
0.0186515
0.0140852
0.0145703
0.01594
0.017603
0.0188068
0.0142694
0.0146954
0.0159515
0.017579
0.0188603
0.0143265
0.0147121
0.0158812
0.0174403
0.0187396
0.0142619
0.0146161
0.0157051
0.0171684
0.0184471
0.0140979
0.0144267
0.0154364
0.0167876
0.0180221
0.0138634
0.0141721
0.0150941
0.0163399
0.017516
0.0135874
0.0138834
0.0147203
0.0158728
0.0169811
0.0132945
0.0135898
0.0143535
0.0154187
0.0164675
0.0130041
0.0133154
0.0140269
0.0150211
0.016026
0.0127299
0.0130789
0.0137692
0.0147235
0.0157168
0.0124816
0.0128963
0.0136068
0.0145674
0.015604
0.0122624
0.0127733
0.0135564
0.0145933
0.0157705
0.0120703
0.0127016
0.0136168
0.014826
0.0162954
0.0119017
0.0126616
0.0137628
0.0152551
0.0172319
0.0117565
0.0126273
0.013945
0.0158235
0.0185667
0.0116356
0.0125554
0.0140358
0.0162368
0.0196437
0.011557
0.0124404
0.0139679
0.0163218
0.0200625
0.0115478
0.012318
0.0137602
0.0160613
0.019749
0.0116224
0.012239
0.0135015
0.0155855
0.0189296
0.0117781
0.01223
0.0132645
0.015033
0.0177908
0.0120647
0.0123422
0.0130633
0.0143241
0.0160043
0.0124564
0.0127497
0.0132105
0.0138944
0.014638
0.0128202
0.01323
0.0135386
0.0138413
0.0140577
0.012179
0.0137764
0.0156937
0.0179892
0.0205099
0.0356943
0.0373983
0.0363501
0.0337185
0.0157207
0.0145226
0.0130651
0.0118763
0.0114731
0.0116514
0.0124183
0.0126676
0.0110322
0.0118806
0.0110817
0.00854523
0.0106159
0.0100915
0.0064108
0.00437355
0.0105512
0.00925916
0.00562291
0.00521342
0.00580303
0.0108959
0.00952525
0.00661674
0.00778729
0.00892413
0.0115825
0.0104187
0.00790078
0.0100747
0.0114733
0.0123314
0.0116227
0.00903001
0.011922
0.0135613
0.0129176
0.0129982
0.00992024
0.0131847
0.0150613
0.0131621
0.0143157
0.0108375
0.01241
0.0142243
0.0129145
0.014868
0.014052
0.0131318
0.013515
0.012418
0.0146388
0.0153263
0.0141351
0.0135985
0.0118255
0.0140529
0.0153355
0.0146621
0.0140617
0.0113872
0.0133436
0.0148804
0.0148454
0.0146705
0.0111512
0.0127457
0.0143234
0.014911
0.0153511
0.0110417
0.0122896
0.0138311
0.0149381
0.0160248
0.0109903
0.0119514
0.0134385
0.0149251
0.0166116
0.0109492
0.0117166
0.0131261
0.0148751
0.017029
0.0108909
0.0115472
0.0128608
0.0147746
0.0172355
0.0108034
0.0113976
0.0126142
0.0146113
0.0172458
0.0106855
0.0112445
0.0123696
0.0143836
0.017091
0.010542
0.0110793
0.0121284
0.0140982
0.0168024
0.0103804
0.0109019
0.0118863
0.0137673
0.0164151
0.010209
0.0107189
0.0116546
0.0134183
0.0159646
0.0100361
0.0105376
0.0114348
0.0130807
0.0154901
0.00986999
0.0103665
0.0112348
0.0127746
0.0150286
0.00971821
0.0102163
0.0110693
0.0125279
0.0146392
0.00958777
0.0100975
0.0109572
0.0123827
0.0144091
0.00948579
0.0100207
0.0109241
0.0124075
0.0144889
0.00941726
0.00998825
0.0109806
0.0126602
0.0150751
0.00938924
0.0100041
0.0111518
0.0132751
0.0165948
0.00939718
0.0100286
0.0113208
0.0138637
0.0180551
0.00944144
0.0100384
0.0114082
0.0142114
0.0190402
0.00953059
0.010039
0.0113907
0.0142419
0.019346
0.00967631
0.0100563
0.0112896
0.0139723
0.0189833
0.0098997
0.0101427
0.0111874
0.0135567
0.0182075
0.0102468
0.0103726
0.0111325
0.012864
0.0160567
0.0109656
0.0110777
0.01156
0.0126231
0.014327
0.0121834
0.0124965
0.0128693
0.0134444
0.0141926
0.0118356
0.0132808
0.0150957
0.0173885
0.0200683
0.0318852
0.0344854
0.0343813
0.0326607
0.0183511
0.0177738
0.0164591
0.0152226
0.0150568
0.0153534
0.0164574
0.0163118
0.0150839
0.0159108
0.0123337
0.00899117
0.0156403
0.0145423
0.00661168
0.00382057
0.0166423
0.0136991
0.00531236
0.00373014
0.0179713
0.0140635
0.0055128
0.00513102
0.00585726
0.019575
0.0153645
0.00600564
0.00640388
0.00746654
0.0207016
0.0174479
0.00650433
0.00737571
0.00876002
0.0209209
0.0204729
0.00716732
0.00812515
0.00973733
0.0200471
0.0242061
0.00987729
0.00773311
0.0087484
0.0183797
0.0249076
0.0215384
0.0143876
0.011608
0.0169512
0.0234794
0.0253177
0.0196155
0.0145938
0.0159523
0.0214774
0.0247554
0.0217653
0.017239
0.0153466
0.0196984
0.0228802
0.0216767
0.0184144
0.0150199
0.0183688
0.0210488
0.0207913
0.0188067
0.0148504
0.017443
0.0196002
0.0197937
0.018776
0.0147673
0.0168151
0.0185327
0.0189032
0.0184753
0.0147297
0.016387
0.017767
0.0181792
0.018074
0.0147133
0.016075
0.0172188
0.0176195
0.0176975
0.0147037
0.0158332
0.0168197
0.0171995
0.0173867
0.0146917
0.0156238
0.0165143
0.0168862
0.0171427
0.0146712
0.0154139
0.0162551
0.0166424
0.0169527
0.0146377
0.0151694
0.0159852
0.0164196
0.016787
0.0145897
0.0149947
0.0156607
0.0161572
0.0165903
0.0145264
0.0148565
0.0153652
0.0158591
0.016429
0.0144491
0.01473
0.0151611
0.0156655
0.0163395
0.0143623
0.0146059
0.0150024
0.0155395
0.0163207
0.0142734
0.014485
0.0148709
0.0154708
0.0163848
0.0141959
0.0143816
0.0147812
0.0155046
0.0166352
0.0141439
0.0143112
0.0147527
0.0157256
0.0173215
0.0141415
0.0143152
0.014894
0.016383
0.0195089
0.0141895
0.014371
0.0151026
0.0169915
0.0215975
0.0142773
0.0144576
0.0152965
0.0174296
0.0231035
0.0143978
0.0145853
0.0154807
0.0177159
0.0240471
0.0145362
0.0147616
0.0156711
0.0178647
0.0244982
0.014662
0.0149901
0.0159331
0.0181321
0.025317
0.0146807
0.0151373
0.0159667
0.0176815
0.0222115
0.0145456
0.0151429
0.015817
0.0168518
0.0185936
0.0139992
0.0147577
0.0154064
0.0161318
0.0169256
0.0115474
0.0133159
0.0154766
0.018136
0.0211426
0.0292963
0.0334155
0.0343962
0.0333228
0.0260032
0.0287851
0.0283925
0.0267919
0.0295576
0.0316294
0.0279723
0.0248348
0.0326301
0.0282071
0.0115816
0.00814586
0.0364441
0.0248904
0.0062944
0.00322404
0.0405792
0.0238673
0.00539257
0.00303085
0.0451511
0.0259057
0.00541129
0.00364887
0.0500689
0.0296881
0.00561516
0.00413423
0.00487796
0.055502
0.035242
0.00592642
0.00448026
0.00552019
0.0615294
0.0439297
0.00658655
0.00503797
0.00628384
0.0680005
0.0571763
0.0110002
0.00593345
0.00614969
0.0737185
0.0705621
0.0461145
0.0261817
0.0164192
0.0768594
0.0776908
0.0635312
0.0436891
0.0265014
0.0780039
0.0803654
0.0718587
0.0571056
0.042759
0.0776156
0.0798985
0.0736994
0.0617402
0.0488466
0.0762504
0.0777958
0.0723616
0.0618168
0.0495131
0.0744607
0.0751615
0.0699509
0.0602871
0.0486216
0.0725808
0.072574
0.0674705
0.0585452
0.0477576
0.0707828
0.0702815
0.0653258
0.0571025
0.0472597
0.0691351
0.0683587
0.0636451
0.0561264
0.0472005
0.0676438
0.0667991
0.0624401
0.0556544
0.0476284
0.0662766
0.0655622
0.0616828
0.0556853
0.0485815
0.0649824
0.0646011
0.0613405
0.0562174
0.0500974
0.0637014
0.0638588
0.0613818
0.0572621
0.0522412
0.0623602
0.0631157
0.0617479
0.058841
0.0551037
0.0608857
0.0623621
0.0622539
0.0608418
0.0585876
0.0592064
0.0615461
0.0627613
0.0630411
0.0626964
0.0572466
0.0605756
0.0632394
0.0654343
0.0673868
0.0549267
0.0593419
0.0635889
0.0679888
0.0727973
0.0521441
0.0576783
0.0635441
0.07034
0.0780718
0.0487904
0.0553939
0.062831
0.0723063
0.0837807
0.0447677
0.0522907
0.0610502
0.0735986
0.0871881
0.0399422
0.0478749
0.0570775
0.0709394
0.0843955
0.0344929
0.0423516
0.0514255
0.0653474
0.0783823
0.0287027
0.0360479
0.0445919
0.0578327
0.0704499
0.0228702
0.0292438
0.0367979
0.0486232
0.0606019
0.01735
0.0223581
0.0283969
0.0377184
0.0457642
0.0125456
0.0158489
0.0193368
0.0240649
0.0298083
0.0095905
0.0119452
0.0148218
0.0186549
0.0229764
0.00923619
0.0112731
0.0137523
0.0167804
0.0201042
0.0104609
0.0127147
0.0156539
0.019183
0.0228402
0.00672114
0.00573616
0.00583324
0.00256909
0.00556423
0.00245608
0.00554095
0.00266834
0.00554541
0.0027781
0.00562675
0.00288593
0.00348584
0.00577971
0.00307113
0.00363545
0.00704761
0.00577932
0.00582382
0.00303377
0.00287173
0.00286449
0.00215129
0.00283667
0.00203638
0.00284491
0.00213073
0.00284749
0.00215191
0.00285698
0.00222809
0.00285917
0.0020957
0.00223276
0.00305559
0.00284411
0.00284432
0.00212307
0.00283817
0.00377679
0.00478762
0.00569641
0.00259647
0.00307328
0.00363861
0.00436863
0.00505782
0.00303255
0.00330282
0.00357809
0.00485708
0.00566496
0.00300934
0.00296116
0.0027827
0.00232043
0.00289489
0.00249386
0.00321188
0.00295661
0.00365304
0.00358653
0.00423315
0.00441991
0.00496504
0.00550094
0.0059287
0.00697296
0.00686282
0.00752353
0.00785941
0.00577125
0.00430627
0.00753564
0.00782094
0.00737122
0.00623566
0.00532525
0.00805802
0.00812665
0.00766924
0.00693182
0.00630705
0.00850063
0.00844833
0.00804617
0.00752041
0.00707114
0.00888965
0.0087679
0.00843374
0.00805504
0.0077328
0.00921835
0.00904899
0.00877389
0.00850128
0.00827414
0.0094628
0.00925193
0.00901851
0.00881786
0.0086517
0.00960037
0.00934696
0.00913338
0.00896736
0.00881274
0.0096245
0.0093264
0.00911022
0.00893832
0.00872567
0.00955365
0.00921173
0.00897856
0.00877271
0.00844799
0.00943806
0.00904944
0.00880345
0.00857975
0.00814418
0.00931831
0.0088894
0.00865508
0.00846588
0.00801835
0.00922449
0.00876256
0.00855943
0.00843732
0.00809462
0.00917636
0.00868613
0.00851494
0.00844481
0.0081848
0.00918747
0.00869169
0.00855722
0.00854518
0.00838613
0.00927219
0.00880264
0.00872075
0.00879502
0.00879226
0.00944207
0.00903347
0.00903524
0.0092468
0.0094749
0.00969907
0.00939459
0.00952882
0.00996447
0.0106192
0.0100291
0.00988726
0.0102162
0.0110069
0.012693
0.0104141
0.0104983
0.0111228
0.0125912
0.0181991
0.0108186
0.0111438
0.0121722
0.014811
0.0345187
0.0112033
0.0117162
0.0131573
0.0166831
0.0438056
0.0115221
0.0121558
0.0139123
0.0178145
0.0464128
0.011733
0.0124422
0.0143713
0.0182588
0.0456916
0.0117651
0.0125412
0.0145193
0.0181566
0.0417737
0.0114599
0.0123302
0.0142804
0.0176992
0.0393972
0.0104887
0.0115429
0.0134607
0.0164869
0.0282118
0.00856011
0.00970629
0.0114333
0.0134857
0.0173887
0.00597378
0.00709918
0.00852514
0.0099985
0.0113067
0.00492087
0.00612156
0.00754257
0.00899953
0.010396
0.00222063
0.00286868
0.00360029
0.00437025
0.00514942
0.00369783
0.00395376
0.00386482
0.00370445
0.00354218
0.00436133
0.0044389
0.00385205
0.00462203
0.00515916
0.0046179
0.00440263
0.00330346
0.00427907
0.00249338
0.00425578
0.00255289
0.00434101
0.00289032
0.00447317
0.00336272
0.00466431
0.00398922
0.00494783
0.00478622
0.00530499
0.00594934
0.00568424
0.00524047
0.00620954
0.00498742
0.0040918
0.00597498
0.00536753
0.00524237
0.00479922
0.00449509
0.00618162
0.00575316
0.00551208
0.00521368
0.00499533
0.00629424
0.006097
0.00588647
0.00563636
0.00542408
0.0063406
0.00631392
0.00616844
0.00595254
0.00573008
0.00635832
0.00643965
0.00635676
0.00617071
0.00593835
0.00637498
0.0065224
0.00648736
0.00632339
0.00608062
0.00640495
0.00659158
0.006585
0.00642999
0.00617672
0.00645035
0.00665477
0.00665363
0.00649219
0.00625122
0.00650418
0.00670453
0.0066832
0.00650136
0.00635463
0.00655637
0.00673187
0.00667144
0.00646061
0.00649151
0.00659955
0.00673977
0.00663911
0.00639021
0.00648241
0.00663296
0.00674136
0.0066143
0.00631419
0.00622158
0.00664983
0.00674016
0.0066006
0.00625549
0.00597143
0.00665465
0.00674263
0.00660681
0.0062371
0.00578687
0.00665808
0.00676124
0.00664915
0.00628515
0.0057275
0.0066733
0.00680883
0.00674346
0.00642227
0.00583702
0.00671424
0.00689641
0.00690263
0.00666621
0.00613593
0.00679168
0.00702903
0.00712993
0.00702529
0.00679677
0.00690173
0.0072016
0.00741307
0.00754859
0.0094944
0.00702812
0.00738599
0.00771335
0.00873335
0.031701
0.00714395
0.0075317
0.00793094
0.00992502
0.0401356
0.00721057
0.00759428
0.00801091
0.0105493
0.0400064
0.00718313
0.00753939
0.00794112
0.0105893
0.0377101
0.00703085
0.00735842
0.00773245
0.0101191
0.0340604
0.00675526
0.00706055
0.0074173
0.00955562
0.0338713
0.0064466
0.00674639
0.00712342
0.00856092
0.019315
0.00612948
0.0064331
0.00676432
0.00756151
0.0109237
0.00558645
0.00591071
0.00623996
0.00663692
0.00744733
0.00511662
0.00585167
0.00672418
0.00773292
0.00895649
0.00284956
0.00357775
0.00435198
0.00515146
0.00593581
0.0042659
0.00451819
0.00437799
0.00413045
0.00386878
0.00491779
0.00500109
0.00434798
0.00511457
0.00556106
0.00516056
0.00496838
0.00385266
0.00531304
0.00486065
0.00290863
0.00489298
0.00281813
0.00501721
0.00309005
0.00517368
0.00350761
0.00538424
0.00408825
0.00570388
0.00484405
0.00608961
0.00610371
0.00644436
0.00571022
0.00717225
0.00671548
0.00666176
0.00612277
0.00614132
0.00589184
0.00567359
0.00678716
0.00659908
0.00645255
0.00620473
0.00598989
0.00684164
0.00691113
0.00679967
0.00656932
0.00633223
0.00687744
0.00708324
0.00704117
0.00684522
0.00659204
0.00694395
0.00721908
0.007238
0.00707644
0.00681244
0.00706152
0.00737516
0.00743656
0.00730128
0.00703193
0.00722592
0.00756016
0.00764453
0.00752831
0.00728039
0.00741171
0.00774609
0.00783285
0.00774019
0.00760772
0.00758219
0.00789091
0.00796157
0.00791211
0.00807883
0.0077045
0.00796536
0.00801033
0.00800119
0.00843417
0.00776653
0.00797347
0.00799332
0.00797253
0.0083409
0.00777942
0.00794331
0.00794257
0.0078448
0.00775473
0.00775454
0.0078874
0.00787148
0.00769935
0.00729376
0.0077073
0.00782492
0.00780804
0.0075929
0.00700405
0.00765896
0.00778009
0.00778173
0.0075616
0.00689599
0.00762934
0.00777053
0.0078101
0.00762264
0.00694694
0.00763569
0.00780719
0.00790092
0.00778427
0.00717909
0.00768708
0.0078889
0.00804559
0.00804665
0.00785571
0.00778376
0.00800584
0.0082312
0.00857283
0.0126416
0.00790549
0.00812572
0.00848466
0.011173
0.0566076
0.0080133
0.00820841
0.00871468
0.0139316
0.0726832
0.0080465
0.00819209
0.00876248
0.0150567
0.0718621
0.00793068
0.00802026
0.00857456
0.0148143
0.0668442
0.00761423
0.00766694
0.00813327
0.0134328
0.0581673
0.00709614
0.00714752
0.00752211
0.0119196
0.0539948
0.00651527
0.00662034
0.00692706
0.00941831
0.0297337
0.00609873
0.00624723
0.00648694
0.00753399
0.0140389
0.00583302
0.00600408
0.00620169
0.00659727
0.00804106
0.00597079
0.0065985
0.00731656
0.00816502
0.00929919
0.00372918
0.00449812
0.00528696
0.00610232
0.00683208
0.0047757
0.00500945
0.0048318
0.00454741
0.00424971
0.00535551
0.0054174
0.00474241
0.00557164
0.0059235
0.00555983
0.00536629
0.00436961
0.00569087
0.00526468
0.00337459
0.00589471
0.00534397
0.00308127
0.00551171
0.00323353
0.00570452
0.00354825
0.0059627
0.0040858
0.00637477
0.00489089
0.00685959
0.00649864
0.00723889
0.00651862
0.00880258
0.00895301
0.00740511
0.00714309
0.00727184
0.00711961
0.00744571
0.00755902
0.00747233
0.00725229
0.0070359
0.00743485
0.00773036
0.00770069
0.00750777
0.00727703
0.00745415
0.0077999
0.00783989
0.00769646
0.00746939
0.00755695
0.00790877
0.007996
0.00789567
0.00767965
0.00774212
0.00808827
0.00820114
0.00813772
0.00795258
0.00797975
0.00831407
0.00844144
0.00842525
0.0083393
0.00822067
0.00853185
0.00867178
0.00874655
0.00892395
0.00841578
0.00869273
0.00885856
0.00909374
0.0097394
0.00853253
0.0087688
0.00896709
0.0093425
0.010247
0.00857085
0.00876702
0.00897298
0.00934293
0.010008
0.00855666
0.00871899
0.00889109
0.00910164
0.00912565
0.00850954
0.00864948
0.00878689
0.00885054
0.00847206
0.00845213
0.00858574
0.00870926
0.0086849
0.00810049
0.00840874
0.00854906
0.00867888
0.00861737
0.00792786
0.00839873
0.00855099
0.00870132
0.00864676
0.00793028
0.00843712
0.0085963
0.00877338
0.00876897
0.00812882
0.00853026
0.008681
0.00888663
0.0090113
0.00902712
0.00867529
0.00879584
0.00905615
0.00983284
0.018078
0.00884491
0.00892803
0.00949434
0.0157357
0.0936845
0.00899102
0.00903313
0.0100101
0.0211437
0.114129
0.00903003
0.0090076
0.0101929
0.0226481
0.10684
0.00886818
0.00877389
0.00994777
0.021791
0.097454
0.00844482
0.00828864
0.00923175
0.01898
0.0830626
0.00776297
0.00759282
0.00826662
0.0160511
0.0734634
0.00694586
0.00686008
0.00727505
0.0116273
0.0416796
0.00631477
0.006346
0.00660752
0.00837386
0.0190949
0.00600408
0.00610066
0.0062778
0.00684155
0.00931023
0.00692604
0.00748326
0.00806309
0.00872602
0.00970189
0.00472317
0.00550297
0.00629085
0.0071165
0.00778183
0.00530458
0.00551881
0.00529774
0.00497758
0.00464349
0.00579833
0.00583417
0.00513674
0.00603726
0.00627851
0.00596753
0.00576147
0.0049108
0.00608858
0.00567018
0.00388714
0.00631123
0.00578909
0.00342757
0.00656778
0.00601079
0.00345669
0.00624879
0.00370552
0.00656408
0.00436258
0.00710488
0.00539768
0.00772715
0.00754526
0.00812788
0.00768189
0.0106736
0.0112347
0.00821962
0.00827533
0.00841724
0.00829768
0.00815266
0.00849085
0.00843534
0.00824293
0.00807315
0.0084816
0.00851008
0.00836691
0.00816954
0.00808049
0.00845245
0.00853403
0.00844685
0.00827769
0.0082135
0.00853883
0.00864098
0.00859673
0.00846798
0.0084339
0.00871924
0.00882935
0.00884159
0.00881001
0.00868721
0.00894096
0.00907253
0.00918325
0.00937131
0.00891829
0.00914794
0.00932837
0.00962717
0.0102239
0.00908881
0.0093075
0.00958115
0.0101561
0.0112771
0.00918234
0.00939995
0.00977925
0.010577
0.0118637
0.00921033
0.00942148
0.00982226
0.0105606
0.0114065
0.00920153
0.00939539
0.0097202
0.0101517
0.0101946
0.00917589
0.00936167
0.00962857
0.00983123
0.0093897
0.00915544
0.00934405
0.00958806
0.00966774
0.00897907
0.0091598
0.00935134
0.00959009
0.00961495
0.00880334
0.0092052
0.00938926
0.00962821
0.00964814
0.00880734
0.0093041
0.0094598
0.0096945
0.00975673
0.0090239
0.0094618
0.00956436
0.00979857
0.0100348
0.0103552
0.00966861
0.00969904
0.0100193
0.0114914
0.0255831
0.00989173
0.00989084
0.0108878
0.0224635
0.132883
0.0100673
0.0100611
0.011941
0.0313372
0.156058
0.0100868
0.0100363
0.0123534
0.033436
0.144931
0.0098517
0.00972398
0.0120093
0.0315953
0.129461
0.00931341
0.0090779
0.0108833
0.0266119
0.108589
0.00850205
0.00819262
0.0094224
0.0215864
0.0921901
0.00748857
0.00724395
0.00790127
0.0147695
0.0539736
0.00658419
0.00652755
0.00687509
0.0096509
0.0248987
0.00609972
0.00616316
0.00636229
0.00717502
0.0109274
0.00810389
0.00860178
0.00903225
0.00948252
0.0103076
0.00573106
0.00650881
0.00729968
0.00814848
0.0087662
0.0058551
0.00605784
0.00579299
0.0054339
0.00505878
0.00626507
0.00628458
0.00556746
0.00653859
0.0066517
0.0064077
0.00619643
0.00550537
0.00653918
0.00613362
0.00445323
0.00678613
0.00629328
0.00393061
0.00708347
0.00657937
0.0038849
0.00737705
0.00687059
0.00422269
0.00728947
0.00513589
0.00797086
0.00648377
0.00872516
0.00913632
0.00912858
0.0090255
0.012475
0.0132912
0.00911889
0.00944848
0.00955368
0.00943694
0.0089333
0.00940887
0.00938706
0.00923054
0.0088081
0.00924158
0.00931297
0.00922419
0.00883633
0.00917051
0.00926466
0.00922691
0.0091333
0.00901186
0.00927404
0.00936424
0.00936929
0.00935765
0.00925374
0.00946343
0.00955947
0.00964762
0.00981096
0.00949631
0.0096785
0.00981892
0.0100735
0.0105646
0.00970243
0.00988301
0.010121
0.0106467
0.0116279
0.00985508
0.0100601
0.0104387
0.011286
0.0127199
0.00995314
0.0101951
0.0107012
0.0117586
0.0132273
0.0100077
0.0102701
0.0107901
0.0117228
0.0126112
0.0100381
0.010294
0.0107016
0.0111827
0.011074
0.010062
0.0103172
0.0106584
0.0108741
0.0102373
0.0100977
0.0103523
0.0106679
0.0107648
0.00987977
0.0101601
0.0103992
0.0106953
0.0107421
0.00975206
0.0102645
0.0104635
0.0107331
0.0107735
0.00977987
0.0104209
0.0105491
0.0107806
0.0108609
0.0100299
0.0106326
0.010667
0.0108823
0.0112184
0.0119852
0.0108791
0.0108248
0.0112305
0.0137015
0.0345479
0.0111241
0.0110993
0.0127648
0.0304691
0.162042
0.0112841
0.0113489
0.0146535
0.0445029
0.189637
0.0112335
0.0113131
0.0154304
0.0480344
0.178462
0.0108881
0.0108886
0.0149458
0.0452531
0.161215
0.0102266
0.0100394
0.0132431
0.0374829
0.133692
0.00931828
0.00893822
0.0110786
0.0293596
0.11008
0.00818888
0.00776872
0.0088301
0.0191945
0.0664466
0.00692777
0.00677533
0.00725479
0.0114067
0.0313898
0.00617574
0.00620875
0.00643901
0.00759066
0.0129717
0.00955152
0.00998958
0.0102388
0.0104356
0.0111734
0.00669814
0.00747333
0.0082817
0.00917514
0.0097723
0.00642213
0.00662357
0.00631794
0.00591665
0.00549611
0.00675698
0.00677302
0.00604469
0.00708326
0.00705101
0.00688138
0.00667855
0.00616936
0.00704219
0.00666509
0.00508463
0.00733253
0.00688552
0.0046255
0.00767333
0.00723299
0.00456768
0.00802798
0.00761766
0.00508927
0.00836929
0.00816184
0.00627106
0.00895737
0.00790922
0.00983857
0.0109046
0.0102447
0.0104146
0.0140899
0.0150562
0.0101134
0.0106581
0.010721
0.0105875
0.00981777
0.0103592
0.0103792
0.0102647
0.00969962
0.0101083
0.010208
0.010166
0.00979371
0.010079
0.0101687
0.010164
0.0100154
0.0102249
0.0103014
0.0103478
0.0104558
0.0102704
0.0104406
0.0105377
0.0107016
0.0110534
0.0105152
0.0106801
0.0108493
0.0112256
0.0119574
0.0107264
0.0109185
0.0112125
0.0118853
0.013088
0.0108983
0.0111412
0.011584
0.0125474
0.0140613
0.0110337
0.0113296
0.0118791
0.0129671
0.0143518
0.0111394
0.0114613
0.0119947
0.0128713
0.0135986
0.011227
0.0115426
0.0119535
0.0123539
0.0119852
0.0113124
0.0116208
0.0119664
0.0121132
0.0112421
0.01141
0.0117005
0.0120143
0.0120637
0.0109903
0.011532
0.0117782
0.0120507
0.0120532
0.0109087
0.0116917
0.011861
0.0120734
0.0120607
0.0109439
0.0118944
0.0119544
0.0120982
0.0121222
0.0112193
0.0121373
0.0120772
0.0122142
0.0126177
0.0139001
0.0123894
0.0122606
0.0127823
0.0164633
0.0426721
0.0126149
0.0126286
0.0151863
0.0391831
0.17878
0.0127154
0.0129622
0.0180284
0.0571333
0.213712
0.012558
0.0129077
0.0192539
0.0620542
0.204956
0.0120779
0.0123426
0.0186616
0.0588952
0.18777
0.0112853
0.0112375
0.0162786
0.0487732
0.156474
0.0103023
0.00987563
0.0132195
0.0376219
0.126567
0.00918372
0.00849585
0.0101016
0.0241629
0.0786345
0.00742404
0.00710037
0.00769722
0.0134777
0.0383621
0.00629323
0.00626202
0.00649805
0.00807212
0.0155113
0.0112998
0.0116811
0.0117134
0.0116122
0.0123968
0.00759227
0.0083749
0.0092209
0.0101837
0.0107924
0.00700325
0.00721397
0.00687231
0.00642524
0.00595468
0.00727592
0.00730086
0.00657407
0.00767529
0.0074814
0.00739147
0.00721015
0.00691642
0.00759643
0.00726178
0.00582945
0.00794753
0.00756118
0.0054578
0.00835081
0.0079923
0.00546853
0.00876661
0.00847694
0.00618276
0.00917237
0.00914022
0.00756329
0.00955756
0.010016
0.00943401
0.0110644
0.0125821
0.0114921
0.011837
0.0155328
0.0165502
0.0112177
0.0119275
0.0119478
0.01179
0.0108524
0.0114069
0.0114789
0.0114004
0.0108054
0.0111895
0.0113018
0.0112865
0.0109708
0.0112304
0.0113133
0.011328
0.0112393
0.0114334
0.0115061
0.0115836
0.0115295
0.011702
0.0118093
0.0120251
0.012513
0.0118092
0.0119979
0.0121915
0.0126295
0.013505
0.012064
0.0122991
0.0126186
0.0133209
0.0145536
0.0122912
0.0125878
0.0130348
0.0139467
0.0153131
0.0124916
0.0128409
0.0133559
0.0142853
0.0153578
0.0126681
0.0130372
0.0135068
0.0141624
0.014505
0.0128284
0.0131822
0.0135266
0.0137425
0.0130843
0.0129872
0.0133161
0.0135882
0.0135913
0.0125034
0.0131564
0.0134409
0.0136638
0.0135894
0.0123712
0.0133449
0.0135523
0.0137088
0.0135791
0.0123409
0.0135597
0.0136556
0.0137231
0.0135609
0.012367
0.0137983
0.0137581
0.0137394
0.0136227
0.0126907
0.0140476
0.0138813
0.0139
0.0143441
0.0161514
0.0142775
0.014092
0.0147611
0.019668
0.0488853
0.0144518
0.0145467
0.01801
0.0459835
0.184704
0.0144563
0.0149691
0.0219619
0.0681986
0.22916
0.0141455
0.0148937
0.0239456
0.0754701
0.224602
0.0134732
0.0141469
0.0234301
0.0726726
0.208647
0.0125062
0.0126976
0.0202931
0.0607604
0.17606
0.0114514
0.0110056
0.0161232
0.0466256
0.141331
0.0103966
0.00944426
0.0116508
0.0297077
0.090202
0.00853621
0.0076587
0.00819976
0.0157983
0.0455443
0.00654492
0.00636585
0.00654405
0.00861031
0.0185541
0.0133109
0.0136431
0.0134406
0.0130082
0.014054
0.00839588
0.00920296
0.0101088
0.0111653
0.0118195
0.00759798
0.00782803
0.00745556
0.00695886
0.00643323
0.00782366
0.00786824
0.00715613
0.0083154
0.00794547
0.00794136
0.0077918
0.00774395
0.00820396
0.00791961
0.00667695
0.00862952
0.00831028
0.00640193
0.00911064
0.00884091
0.00653369
0.00960385
0.00944646
0.00735878
0.0100804
0.0102105
0.00883718
0.0105291
0.0111421
0.0108676
0.0110179
0.0124142
0.0140383
0.0128837
0.0133332
0.0168705
0.0178841
0.0124528
0.0132768
0.0132835
0.013084
0.0121095
0.0126715
0.0127698
0.012697
0.0121388
0.0125143
0.0126259
0.0126139
0.0123741
0.0126289
0.0127033
0.0127213
0.0127029
0.0129055
0.0129745
0.0130614
0.0130541
0.0132516
0.0133624
0.0135879
0.0134016
0.0136303
0.0138269
0.0142491
0.0151229
0.0137333
0.0140174
0.0143232
0.0149449
0.0160303
0.0140452
0.0143906
0.0147894
0.0155244
0.0165649
0.0143353
0.0147248
0.0151502
0.0158093
0.0164201
0.0146039
0.0150017
0.0153568
0.0157143
0.0155782
0.0148571
0.0152269
0.0154532
0.0154238
0.0144179
0.0151075
0.0154323
0.0155713
0.0153544
0.0140105
0.0153635
0.0156173
0.0156818
0.015392
0.0139357
0.0156292
0.0157758
0.015747
0.0153894
0.0138989
0.0159044
0.0159103
0.0157719
0.0153789
0.0139
0.0161794
0.0160294
0.0158045
0.0155014
0.0142667
0.0164319
0.0161588
0.0160463
0.0165637
0.0183191
0.0166281
0.0163964
0.0172425
0.0231597
0.0532717
0.0167178
0.0169177
0.0213326
0.0515229
0.183862
0.0165717
0.0174433
0.0267456
0.0776943
0.23781
0.0160271
0.0173228
0.029604
0.0877268