/*--------------------------------*- C++ -*----------------------------------*\
| =========                 |                                                 |
| \\      /  F ield         | OpenFOAM: The Open Source CFD Toolbox           |
|  \\    /   O peration     | Version:  2.3.1                                 |
|   \\  /    A nd           | Web:      www.OpenFOAM.org                      |
|    \\/     M anipulation  |                                                 |
\*---------------------------------------------------------------------------*/
FoamFile
{
    version     2.0;
    format      ascii;
    class       volScalarField;
    location    "600";
    object      nut;
}
// * * * * * * * * * * * * * * * * * * * * * * * * * * * * * * * * * * * * * //

dimensions      [0 2 -1 0 0 0 0];

internalField   nonuniform List<scalar> 
6852
(
0.00462047
0.00468196
0.00457174
0.00436313
0.0022778
0.00222805
0.00212444
0.00200189
0.00224697
0.00213026
0.00198129
0.00183823
0.00172472
0.00206712
0.001881
0.00171744
0.00159936
0.00151474
0.00192764
0.00175536
0.0016148
0.00152591
0.00146146
0.00204308
0.00188429
0.00175687
0.00167643
0.00161205
0.00220369
0.00204622
0.0019205
0.00184147
0.00177763
0.00238412
0.00222382
0.00209695
0.00202048
0.00195988
0.00258015
0.0024155
0.00228698
0.0022159
0.00216149
0.00278843
0.00261968
0.00248976
0.00242702
0.00238185
0.00301066
0.00284169
0.00271146
0.00265846
0.00262543
0.0032481
0.00309246
0.00297133
0.00292653
0.00290531
0.00347551
0.00335356
0.00325091
0.00321725
0.00320995
0.00366066
0.00359961
0.00352581
0.0035081
0.00351709
0.00378783
0.00378748
0.00376286
0.00376549
0.00379137
0.00384759
0.00389641
0.00391832
0.00394538
0.00398309
0.00384139
0.00392652
0.0039831
0.00403128
0.00408055
0.00377847
0.00388782
0.00396876
0.00403356
0.00409255
0.00367211
0.00379561
0.00389238
0.00396918
0.0040355
0.00353636
0.00366648
0.00377268
0.00385764
0.00392915
0.00338374
0.00351552
0.00362696
0.00371747
0.00379282
0.00322408
0.00335477
0.00346921
0.00356408
0.00364295
0.00306409
0.00319265
0.00330946
0.00340876
0.00349187
0.00290755
0.00303413
0.00315376
0.00325853
0.00334748
0.00275461
0.00287982
0.00300403
0.00311658
0.00321357
0.00260835
0.00273211
0.00286067
0.00298176
0.00308907
0.00246697
0.00258982
0.00272244
0.00285257
0.00297188
0.00232767
0.00245072
0.00258675
0.0027253
0.00285699
0.00218703
0.00231196
0.00245053
0.00259563
0.00273816
0.00204164
0.00217042
0.00231055
0.0024589
0.00260774
0.00188921
0.0020235
0.00216427
0.00231178
0.00245965
0.00173081
0.00187069
0.00201116
0.00215386
0.00229133
0.00157438
0.00171576
0.00185321
0.00198665
0.00210327
0.00144057
0.00157371
0.00170329
0.00182633
0.00192535
0.0013501
0.00146601
0.00158104
0.00169264
0.00178617
0.0012872
0.00139599
0.00151066
0.00162916
0.00173678
0.00124024
0.00134843
0.0014628
0.00158019
0.00168516
0.00118948
0.00130015
0.00141044
0.00151766
0.00160777
0.00114398
0.00124958
0.00135173
0.00144503
0.00151642
0.00111709
0.00121523
0.00131122
0.00139761
0.00146023
0.00234639
0.00257154
0.00280492
0.00301403
0.00314985
0.00212603
0.0021279
0.0020554
0.00194842
0.00155554
0.00149351
0.00147
0.00147955
0.00134603
0.00145754
0.00160929
0.00166669
0.00151949
0.00157187
0.00160899
0.00162693
0.00169909
0.00153232
0.00161269
0.00177841
0.00204518
0.00232405
0.00177523
0.00204678
0.00254028
0.00315118
0.00360624
0.00207358
0.00253281
0.00328132
0.00410087
0.00464752
0.00231736
0.00289891
0.00379038
0.00470421
0.00528161
0.00247556
0.00311524
0.00406695
0.00500801
0.00557747
0.00253667
0.00317406
0.00410982
0.00502314
0.00555535
0.00249766
0.00306552
0.00387402
0.0046887
0.00516298
0.00238552
0.00284655
0.00345697
0.00409719
0.00449044
0.00220647
0.0026041
0.00305309
0.00352006
0.00382114
0.00200337
0.00238365
0.00271335
0.00304468
0.00326344
0.00187719
0.00213953
0.00244655
0.00268186
0.00283742
0.00182418
0.00196842
0.00218707
0.00235886
0.00244386
0.0018173
0.00188838
0.00201959
0.00213688
0.00219675
0.00183251
0.00186365
0.00194355
0.00202623
0.00207662
0.00185478
0.00186529
0.00191685
0.00197996
0.00202552
0.00187642
0.00187691
0.00191278
0.00196439
0.00200707
0.00189447
0.00189076
0.00191791
0.0019624
0.00200309
0.00190862
0.00190398
0.00192637
0.00196623
0.00200544
0.00191984
0.00191617
0.00193612
0.00197291
0.00201099
0.0019295
0.00192795
0.00194691
0.00198167
0.00201885
0.001939
0.00194032
0.00195921
0.00199254
0.00202896
0.00194952
0.00195415
0.00197362
0.00200593
0.00204159
0.00196203
0.00197018
0.00199077
0.00202243
0.0020575
0.00197725
0.00198893
0.0020112
0.00204287
0.00207806
0.00199624
0.00201083
0.00203542
0.00206834
0.00210574
0.00202074
0.00203602
0.00206297
0.00209878
0.00214217
0.00205411
0.00206527
0.00209332
0.00213414
0.00219026
0.00210225
0.0021005
0.0021244
0.00216903
0.00224081
0.00217541
0.00214816
0.00215648
0.00219659
0.00227419
0.00228749
0.00222265
0.0021982
0.00221713
0.00227999
0.00244612
0.00234593
0.00227684
0.00225744
0.00228626
0.00263959
0.00253754
0.00243184
0.00236458
0.00234076
0.00279449
0.00275029
0.00266719
0.00257553
0.00249248
0.00286524
0.00287414
0.00285323
0.00282574
0.00276712
0.00284978
0.00287238
0.00286362
0.002836
0.0027396
0.00261311
0.00262355
0.00257985
0.00243401
0.00220545
0.001202
0.00129441
0.00139557
0.00149797
0.0015804
0.00214039
0.00216423
0.00210171
0.00198517
0.00142908
0.00140659
0.00145344
0.00150133
0.00143453
0.00156146
0.00160421
0.0015973
0.00141584
0.00140955
0.00137326
0.00124547
0.00128288
0.00120886
0.00122097
0.001439
0.00177798
0.00130821
0.00135851
0.00185902
0.00300766
0.00382876
0.00147047
0.00174037
0.00286207
0.00482859
0.00594453
0.00167677
0.00212891
0.00367707
0.00606483
0.00731611
0.00186025
0.00239557
0.00415019
0.00671866
0.00801658
0.00197957
0.00248466
0.00420655
0.00672177
0.00797022
0.00201227
0.00237065
0.00361377
0.00570774
0.00682576
0.00201742
0.0022452
0.00292685
0.00447136
0.00551693
0.00202498
0.00218358
0.00263375
0.00373471
0.00464448
0.00203666
0.00217635
0.00253814
0.00338181
0.00414614
0.00200676
0.00219512
0.00252911
0.00322287
0.00387011
0.00191906
0.0022144
0.00254409
0.00313741
0.00368316
0.00181854
0.00218986
0.00255044
0.00306593
0.00352424
0.00173483
0.00212144
0.00253679
0.00298844
0.00335737
0.00167518
0.00203919
0.00246867
0.00288419
0.003167
0.00163624
0.00196483
0.00238199
0.00276468
0.00299802
0.00161224
0.00190434
0.00229707
0.00265243
0.00286098
0.00159817
0.0018564
0.00222016
0.00255272
0.00275066
0.00159047
0.00181767
0.00215012
0.00246333
0.00265737
0.00158698
0.00178544
0.00208572
0.00238007
0.00257137
0.00158671
0.00175815
0.00202557
0.00229875
0.00248528
0.0015894
0.00173529
0.00196926
0.00221781
0.0023957
0.00159543
0.00171738
0.00191783
0.00213828
0.0023018
0.00160667
0.00170677
0.00187421
0.0020633
0.00220641
0.00162485
0.0017062
0.00184303
0.00200059
0.00212108
0.00165093
0.00171693
0.00182832
0.00195921
0.00206124
0.00168658
0.00174001
0.00183319
0.00194812
0.00204718
0.00173451
0.00177618
0.00185791
0.00196955
0.00208651
0.00179835
0.00182571
0.0018978
0.00201068
0.00215263
0.00188344
0.00189203
0.00195107
0.00206124
0.00222031
0.00199558
0.00198255
0.00202313
0.00212167
0.00228118
0.00213864
0.00210685
0.00212781
0.00220844
0.00235551
0.00231302
0.00226993
0.00227757
0.00234447
0.00247921
0.00252106
0.00247595
0.00247192
0.00252362
0.00263698
0.00274927
0.00272752
0.0027226
0.00274913
0.00281922
0.00279941
0.00279628
0.00277345
0.00274255
0.00269813
0.00123914
0.0013179
0.00140662
0.00150598
0.00160804
0.00212136
0.0021714
0.00214076
0.00206181
0.00144139
0.00137989
0.00135342
0.00137063
0.00143602
0.00151368
0.00162988
0.00168136
0.00143549
0.00144031
0.00138619
0.00113155
0.00131469
0.00118757
0.00100611
0.000994123
0.00123609
0.00110233
0.00116459
0.00236021
0.00355342
0.00122983
0.00116284
0.00165272
0.00446552
0.00645938
0.0012681
0.00126558
0.00209323
0.00574811
0.00802562
0.00131936
0.00134561
0.00232054
0.00621412
0.0084698
0.00136275
0.00138263
0.00226425
0.0057333
0.00761927
0.00138651
0.0013822
0.00174679
0.00358694
0.00479447
0.00140843
0.00140176
0.00145949
0.00216265
0.00301367
0.00143591
0.00142231
0.00147185
0.00182872
0.00241865
0.00147785
0.0014477
0.00151149
0.0017831
0.00224834
0.0015312
0.00148138
0.00155822
0.0018309
0.00228223
0.00159041
0.00152811
0.00160857
0.00191455
0.00240115
0.00163816
0.00158416
0.00166508
0.00200521
0.00254643
0.00166586
0.00164324
0.00172543
0.00208735
0.00268525
0.0016748
0.00170125
0.00178389
0.00215779
0.00279199
0.00167085
0.00174681
0.00183592
0.00221234
0.00285803
0.00165988
0.00177714
0.00187918
0.00224921
0.00288813
0.00164606
0.00179326
0.00191374
0.00226992
0.00288937
0.00163178
0.00179779
0.00194184
0.00227839
0.00286875
0.00161834
0.00179361
0.0019622
0.00228017
0.00283514
0.00160649
0.00178274
0.00196977
0.0022812
0.00279805
0.00159686
0.00176713
0.00196523
0.00227116
0.00275415
0.00159022
0.0017489
0.00194959
0.00224633
0.0026908
0.00158773
0.00173067
0.00192545
0.00220775
0.00260929
0.00159096
0.0017156
0.00189721
0.00215954
0.00251426
0.0016018
0.00170725
0.00187123
0.0021108
0.0024175
0.00162239
0.00170905
0.00185455
0.00207527
0.00234659
0.00165545
0.00172481
0.00185596
0.00207393
0.00234221
0.00170294
0.00175472
0.00187307
0.0020904
0.00236543
0.0017672
0.0017999
0.0019048
0.00211753
0.00240386
0.00185116
0.00186353
0.00195286
0.00215396
0.00244623
0.00195806
0.0019505
0.00202205
0.00220425
0.00249473
0.00209284
0.00206862
0.00212246
0.00228382
0.00257061
0.00226562
0.00223034
0.00226126
0.00237888
0.0025994
0.00250874
0.00247731
0.002487
0.00255441
0.00268408
0.00267948
0.00266901
0.00266053
0.00266794
0.00268889
0.00122154
0.00129398
0.00137956
0.00148063
0.00159063
0.00200497
0.00208513
0.00208198
0.00202921
0.0016163
0.00156004
0.00150199
0.00146066
0.00160161
0.00161455
0.0016746
0.00169398
0.00154256
0.00151826
0.00140472
0.00108238
0.00147391
0.00134493
0.000960338
0.000870499
0.00145299
0.00126094
0.000937232
0.00206085
0.00147625
0.00126346
0.00107103
0.00391387
0.00716935
0.00152848
0.00131227
0.00118972
0.00485252
0.00854515
0.00156817
0.001385
0.00123607
0.00499888
0.00831205
0.00157237
0.00148256
0.00121008
0.0041458
0.00625753
0.00152944
0.00160869
0.00114224
0.00172706
0.0023413
0.00147181
0.00165035
0.00148802
0.00137528
0.00150989
0.00142925
0.00161149
0.00166415
0.0015283
0.00151077
0.00140555
0.00155505
0.00168807
0.00164429
0.00159306
0.00139522
0.0015079
0.0016591
0.00170318
0.00171642
0.00139332
0.00147541
0.00162039
0.00172118
0.00181055
0.00139865
0.00145553
0.00158498
0.00171392
0.00185891
0.00140891
0.0014453
0.00155631
0.00169428
0.00187505
0.00142184
0.00144238
0.00153484
0.00167078
0.00187236
0.00143575
0.00144479
0.00151988
0.00164788
0.00185706
0.00144958
0.0014511
0.00151048
0.00162755
0.00183424
0.00146282
0.00146037
0.00150572
0.00161049
0.00180795
0.00147532
0.0014724
0.00150512
0.00159697
0.00178087
0.00148723
0.00148842
0.0015092
0.00158755
0.00175552
0.00149891
0.00150144
0.00151914
0.00158433
0.00173613
0.00151099
0.00151194
0.00153084
0.00158865
0.00171989
0.0015244
0.00152116
0.00153859
0.00159035
0.00170572
0.00154054
0.00153062
0.00154418
0.00159048
0.00169401
0.00156132
0.00154237
0.00154985
0.00159109
0.00168595
0.00158955
0.00155971
0.00156017
0.0015992
0.00169387
0.00162865
0.00158654
0.00158007
0.00162353
0.00173409
0.00168341
0.00162951
0.00162206
0.00168651
0.00188044
0.00175739
0.00169192
0.00168572
0.00176728
0.00204252
0.0018525
0.0017759
0.00176891
0.00186047
0.00219066
0.00196987
0.00188519
0.00187484
0.00196825
0.00232612
0.00210896
0.00202317
0.00200908
0.00209669
0.00246107
0.00226661
0.00219201
0.00218197
0.00227359
0.00265836
0.00243209
0.00237966
0.0023729
0.00244784
0.0027092
0.00259166
0.0025688
0.00256337
0.00259818
0.00270015
0.00260441
0.00261377
0.002613
0.00261884
0.00263545
0.00120658
0.00129568
0.00139686
0.00151212
0.00163265
0.00384371
0.00410505
0.00416485
0.00409935
0.00181062
0.00190501
0.00189198
0.00183788
0.00193041
0.00199692
0.00187793
0.00176948
0.00202826
0.00188579
0.00130582
0.000936525
0.00214352
0.00177146
0.000904654
0.000932999
0.00226186
0.00173467
0.000858578
0.00229092
0.00238588
0.00180722
0.000879002
0.00355169
0.00251246
0.00193466
0.000898559
0.0039973
0.00933617
0.00264526
0.00210787
0.000906438
0.00394572
0.00827347
0.00278519
0.00235339
0.000917741
0.00300734
0.00488812
0.002928
0.00268486
0.00108856
0.00100645
0.00116064
0.00304862
0.00298263
0.0024112
0.00181682
0.00143876
0.00311288
0.00312967
0.00283014
0.00234693
0.00182788
0.00313597
0.00318309
0.00300991
0.0026832
0.00232182
0.00312816
0.00317383
0.00304822
0.00278996
0.0024816
0.00310052
0.00313179
0.00302043
0.00279169
0.00249847
0.00306392
0.00307831
0.00296969
0.00275693
0.00247588
0.003025
0.00302486
0.00291656
0.00271682
0.00245378
0.0029873
0.0029767
0.00286983
0.00268313
0.00244096
0.00295232
0.0029357
0.00283268
0.0026601
0.00243943
0.0029203
0.00290201
0.00280573
0.00264889
0.00245046
0.00289064
0.00287502
0.00278866
0.00264963
0.00247486
0.00286228
0.00285387
0.00278092
0.00266226
0.00251317
0.00283393
0.00283743
0.00278185
0.00268688
0.00256638
0.00280393
0.00282087
0.00279014
0.00272367
0.00263575
0.00277059
0.00280398
0.00280154
0.00276959
0.0027178
0.00273211
0.00278557
0.00281294
0.0028192
0.00281148
0.00268651
0.00276352
0.00282363
0.00287221
0.00291475
0.00263152
0.00273524
0.00283142
0.00292774
0.0030295
0.00256399
0.00269662
0.00283043
0.00297794
0.00313734
0.00248017
0.00264268
0.0028145
0.00301927
0.00325002
0.00237572
0.00256759
0.00277433
0.00304613
0.00331545
0.00224404
0.00245679
0.00268254
0.0029906
0.00326192
0.00208535
0.00231073
0.00254626
0.00287031
0.00314357
0.00190228
0.00213184
0.00237106
0.00270023
0.00298026
0.00169804
0.00192013
0.0021539
0.00247592
0.00276412
0.00147899
0.00167893
0.00189212
0.00218067
0.00240202
0.00125765
0.00141356
0.00156137
0.00174183
0.00193857
0.0010996
0.00122719
0.00136699
0.00153359
0.00170198
0.0010791
0.00119217
0.00131675
0.00145451
0.00159205
0.00229683
0.00253219
0.00280967
0.00311031
0.00339386
0.00184105
0.000850404
0.000857569
0.00157221
0.000837562
0.00307741
0.000835808
0.00366879
0.000836145
0.0038101
0.000842255
0.00375977
0.00926491
0.000853626
0.00264282
0.00402535
0.00188523
0.000853597
0.000856877
0.0012369
0.000601709
0.00060095
0.00440715
0.000598025
0.00600687
0.000598893
0.00625284
0.000599163
0.00626998
0.000600162
0.00618816
0.000600391
0.00458418
0.00611217
0.00124134
0.000598808
0.00059883
0.0010339
0.00119554
0.00137929
0.00155302
0.0016939
0.000571697
0.000622011
0.000676843
0.000741691
0.000798049
0.000617924
0.000644836
0.000671169
0.00156403
0.00168893
0.000615515
0.00122115
0.000591735
0.00108044
0.000603525
0.0011199
0.0006357
0.0012194
0.000677951
0.00134311
0.000729798
0.00149108
0.000790372
0.00166352
0.000863675
0.00187296
0.000929228
0.000972763
0.00198861
0.00170469
0.00147317
0.000973725
0.000991827
0.0009629
0.00088578
0.00081876
0.00100694
0.0010111
0.000982239
0.00093393
0.00089099
0.00103426
0.00103101
0.00100619
0.000972841
0.000943439
0.00105769
0.00105041
0.00103022
0.00100689
0.000986618
0.0010771
0.00106717
0.00105085
0.00103445
0.00102059
0.0010913
0.00107911
0.00106544
0.00105357
0.00104363
0.00109922
0.00108466
0.00107224
0.00106249
0.00105332
0.00110062
0.0010835
0.00107091
0.00106081
0.00104815
0.00109661
0.00107685
0.00106318
0.00105099
0.00103142
0.00109001
0.00106737
0.00105282
0.00103944
0.00101281
0.00108313
0.00105795
0.00104397
0.0010326
0.00100506
0.00107772
0.00105043
0.00103825
0.00103091
0.00100987
0.00107497
0.0010459
0.00103561
0.00103141
0.0010155
0.00107568
0.0010463
0.00103823
0.00103756
0.00102793
0.0010807
0.00105302
0.00104816
0.00105266
0.00105255
0.00109061
0.0010668
0.00106694
0.00107939
0.00109267
0.00110542
0.00108796
0.00109574
0.00112054
0.0011568
0.00112412
0.00111617
0.00113462
0.00117773
0.00126475
0.00114555
0.00115019
0.00118393
0.00125968
0.00151449
0.00116762
0.00118505
0.00123855
0.00136626
0.00208592
0.00118822
0.00121513
0.00128771
0.00145008
0.00234987
0.00120503
0.00123773
0.00132416
0.00149847
0.0024188
0.00121601
0.00125223
0.00134584
0.00151705
0.00239995
0.00121766
0.00125721
0.00135275
0.0015128
0.00229475
0.00120174
0.00124657
0.00134157
0.00149361
0.00222852
0.00114964
0.00120609
0.00130249
0.00144154
0.00188577
0.00103853
0.00110594
0.00120039
0.00130374
0.00148047
0.000867503
0.000945777
0.00103651
0.00112259
0.0011938
0.00157474
0.00175653
0.00194995
0.00213011
0.00228952
0.000528682
0.000600952
0.00067328
0.000741843
0.000805286
0.00180786
0.0017688
0.00150818
0.00123358
0.00110153
0.00229935
0.00209271
0.00127953
0.000762759
0.000805841
0.00246461
0.0020254
0.000644835
0.00205002
0.000559979
0.00202655
0.000566566
0.0019992
0.000602874
0.00196689
0.000650324
0.00193506
0.000708365
0.00191691
0.000775948
0.001911
0.000865172
0.00201912
0.00103795
0.000884
0.0007927
0.000718357
0.0021327
0.0013729
0.00114093
0.0011098
0.00113189
0.00222625
0.00173365
0.00154034
0.00150018
0.00151704
0.00228165
0.00201616
0.00188407
0.00183911
0.00183275
0.00229852
0.00218963
0.00211572
0.00207287
0.00204157
0.00228994
0.00227844
0.00224899
0.00221
0.00215696
0.00227243
0.00231915
0.00231921
0.00228181
0.0022091
0.00225992
0.00234147
0.00235848
0.00231824
0.00222681
0.00226058
0.00236275
0.00238644
0.00233823
0.00223148
0.00227607
0.002389
0.00241038
0.00234857
0.00224059
0.00230272
0.00241903
0.00243083
0.00234592
0.0022073
0.00233485
0.00245007
0.00244858
0.00232832
0.00208734
0.00236714
0.00248055
0.00246666
0.00230288
0.00187407
0.00239152
0.0025075
0.00248593
0.00228973
0.00176427
0.00240605
0.00252785
0.00250508
0.00229175
0.00171698
0.00241136
0.00254095
0.00252434
0.00230966
0.00172133
0.00240931
0.00254714
0.00254357
0.00234046
0.00173729
0.00240264
0.00254695
0.00256082
0.00237699
0.00175655
0.00239381
0.00253964
0.00256785
0.00238555
0.00168835
0.00237971
0.00252072
0.00253634
0.00221387
0.00123505
0.00235665
0.00248295
0.00241228
0.00160319
0.00166324
0.00232193
0.00242815
0.00228393
0.00148814
0.00213245
0.00227105
0.00235917
0.00218857
0.00151362
0.00223642
0.00219829
0.00227318
0.00211307
0.00154318
0.00219114
0.00209939
0.00216679
0.00203976
0.00155232
0.00207138
0.00197257
0.00203875
0.00195237
0.00153382
0.00213368
0.00179706
0.00189391
0.00186915
0.00158464
0.00161846
0.00159592
0.00168725
0.00174244
0.0016215
0.00136835
0.00144168
0.00149744
0.00154141
0.00153456
0.00138026
0.000802876
0.000858673
0.000920538
0.000987243
0.00106254
0.000598774
0.000671045
0.000740183
0.00080537
0.000864541
0.0020698
0.00202109
0.00170576
0.0013885
0.00123156
0.00275024
0.0024651
0.00141991
0.00080247
0.00083672
0.0029545
0.00235048
0.000696511
0.00304668
0.00238356
0.000605098
0.00237821
0.000595421
0.00235729
0.000623441
0.00232099
0.000664224
0.00227779
0.000717129
0.00225491
0.000780674
0.00224913
0.000876477
0.00242253
0.00114383
0.000950525
0.000920096
0.00263623
0.00166318
0.00135929
0.00132678
0.00134991
0.0028485
0.00224922
0.00201105
0.00196143
0.00197759
0.00302032
0.0027371
0.00260116
0.00255946
0.00255839
0.00314349
0.0030718
0.00302868
0.0030092
0.00299558
0.00323341
0.00328877
0.0033158
0.00332137
0.00330209
0.00330951
0.00343869
0.00351403
0.00354166
0.00352135
0.00338497
0.0035573
0.0036642
0.00370945
0.0036931
0.00346281
0.00365923
0.00378535
0.00384467
0.00383384
0.00353771
0.00374438
0.00387992
0.00394485
0.0039079
0.00360067
0.00380685
0.00394199
0.00398564
0.00381901
0.00364477
0.00384322
0.00396786
0.0039554
0.00357076
0.00366764
0.00385512
0.00396073
0.0038533
0.00302575
0.00366839
0.00384479
0.0039339
0.00376183
0.00277556
0.0036486
0.0038166
0.00389797
0.00369465
0.00264623
0.00361197
0.0037758
0.00385966
0.00365094
0.00257621
0.00356206
0.00372534
0.00381977
0.00362292
0.00253188
0.00350155
0.0036653
0.00377087
0.00358325
0.00247089
0.00343067
0.00359007
0.00368271
0.00340378
0.00210309
0.00334732
0.0034867
0.00347105
0.00268254
0.0013224
0.00324736
0.00333683
0.00300582
0.00159673
0.00273445
0.00313127
0.00317723
0.00268682
0.0016284
0.00362854
0.00299964
0.00302576
0.00253287
0.00173983
0.00376075
0.00285261
0.00287645
0.00244937
0.00177903
0.00362029
0.00269658
0.00272616
0.00238801
0.00174315
0.00331059
0.00254459
0.00258103
0.00231973
0.00167231
0.00324895
0.00240708
0.00246398
0.00229794
0.00165608
0.00228549
0.00220062
0.00229197
0.00225778
0.00177169
0.00155677
0.00189513
0.00194771
0.00195668
0.00179155
0.00143906
0.000867366
0.000911872
0.000960275
0.00101449
0.00108271
0.000684906
0.000752363
0.000815783
0.000876508
0.000927473
0.00214063
0.00208293
0.00175055
0.00143489
0.00126921
0.00287736
0.00255767
0.0014511
0.000837641
0.000863627
0.00307597
0.00242657
0.000741888
0.00315074
0.00244929
0.000651997
0.00318357
0.00245386
0.000622845
0.00243479
0.000637945
0.00239107
0.000668229
0.00233915
0.000717137
0.00232855
0.000784767
0.00234053
0.000904848
0.00256495
0.00128284
0.00105332
0.00106243
0.00283423
0.00195435
0.00160366
0.00156179
0.00307732
0.00264676
0.00244766
0.00240936
0.00242665
0.00324692
0.00314885
0.0031056
0.00310921
0.00313003
0.00335354
0.00343964
0.00350112
0.00355005
0.00358438
0.00343612
0.00361326
0.00374078
0.00383072
0.00388654
0.0035225
0.00374603
0.00391744
0.00404621
0.00413256
0.00362096
0.00387115
0.00407653
0.00424606
0.00437498
0.00372368
0.00398969
0.00422524
0.00444102
0.00460911
0.00381539
0.0040893
0.0043528
0.00460638
0.00474171
0.003881
0.00415436
0.00443393
0.00467971
0.00465645
0.00391245
0.00417572
0.00444722
0.00462152
0.00432576
0.00391045
0.00415656
0.00439626
0.0044279
0.00355066
0.00387902
0.00410836
0.00432212
0.00427049
0.00322507
0.00382414
0.00404133
0.00424261
0.00415649
0.00305766
0.00375206
0.00396197
0.00416218
0.00407203
0.00295786
0.00366737
0.00387268
0.00407784
0.00399983
0.00289107
0.00357289
0.00377243
0.0039768
0.00389269
0.00277032
0.00346899
0.0036548
0.00381847
0.00355894
0.0021624
0.0033546
0.00350642
0.00349584
0.00255007
0.0015399
0.00322721
0.00331251
0.00287496
0.00168963
0.00414412
0.00308989
0.00313144
0.0025692
0.00200298
0.00531979
0.002941
0.00297179
0.00247092
0.00221557
0.00538299
0.00277759
0.00281367
0.00241796
0.00224995
0.00512219
0.00260484
0.0026475
0.00235401
0.00213186
0.00462374
0.00244207
0.00248771
0.00226562
0.00196854
0.00437279
0.00232622
0.00238219
0.00222965
0.00178057
0.00309956
0.00224163
0.00231987
0.00225307
0.00175849
0.00195749
0.00199003
0.00203183
0.00202066
0.00180536
0.00150777
0.000934213
0.000971115
0.0010081
0.00104879
0.00110594
0.000770783
0.000832143
0.000889847
0.000946521
0.000989817
0.00220686
0.00213654
0.00178168
0.00146547
0.00129743
0.00296274
0.00261071
0.00146176
0.000871996
0.000889179
0.00314196
0.00246556
0.000786575
0.00319636
0.00247584
0.000699887
0.0032235
0.00248567
0.000657181
0.00322929
0.0024714
0.000659887
0.00242028
0.000683239
0.00235258
0.000741536
0.0023748
0.00082498
0.00242862
0.000975448
0.0027244
0.00145839
0.00115994
0.00119009
0.00303949
0.00228872
0.00189656
0.00184296
0.00326516
0.00304184
0.00292142
0.00291412
0.00337214
0.00345805
0.00352352
0.00359121
0.00365214
0.00341901
0.00362481
0.00377861
0.003902
0.004003
0.00346999
0.00371709
0.00391708
0.00408653
0.00423175
0.00354569
0.00381117
0.00404511
0.00426647
0.00447171
0.00363893
0.00391804
0.00418927
0.0044717
0.00474757
0.00373185
0.00402355
0.00433717
0.00469374
0.00502342
0.00380649
0.00411024
0.00447075
0.00489189
0.00519462
0.00384946
0.00416038
0.00455491
0.00498275
0.00511932
0.00385594
0.00416215
0.00454927
0.00488872
0.00470698
0.00383004
0.00412125
0.0044647
0.00462493
0.00379298
0.00377916
0.0040573
0.00437154
0.00444642
0.00346257
0.00371044
0.00398017
0.00428211
0.0043282
0.00331132
0.00362906
0.00389254
0.00419149
0.00423778
0.00322837
0.00353862
0.00379447
0.00409232
0.00414917
0.00316403
0.00344144
0.00368475
0.00396991
0.0040026
0.00298981
0.00333836
0.00355931
0.00378379
0.00357091
0.00219089
0.00322868
0.00340766
0.00342304
0.00246518
0.00192114
0.00311122
0.00322186
0.00277946
0.00204263
0.00566766
0.0029864
0.00306181
0.00255982
0.00263717
0.00704042
0.00284606
0.00291837
0.00252362
0.00292722
0.00701087
0.0026838
0.00276251
0.00248845
0.00294175
0.00664214
0.00250355
0.00258144
0.0024028
0.00271201
0.0059735
0.00232755
0.00239623
0.00227206
0.00242473
0.00548721
0.00219104
0.00226119
0.00217798
0.00204753
0.00396148
0.00212261
0.00221142
0.0021785
0.00182747
0.00245751
0.00191785
0.00196195
0.001963
0.00178306
0.00164599
0.00101056
0.00104118
0.00106699
0.00109332
0.00113995
0.00084906
0.000905004
0.000958539
0.00101282
0.00105055
0.00228771
0.0022033
0.00181837
0.00149785
0.00132852
0.00304795
0.00266322
0.00147038
0.000907519
0.000915259
0.00320478
0.00250477
0.000832891
0.0032446
0.00250827
0.00074917
0.00326941
0.0025207
0.000703992
0.00328081
0.00251649
0.000699874
0.00325404
0.00245206
0.000729778
0.00239729
0.000804945
0.00246684
0.000904451
0.00255627
0.00107349
0.00293051
0.0016631
0.00125395
0.00129436
0.00327051
0.00267282
0.00226369
0.00219913
0.00343491
0.0034191
0.00340681
0.00344297
0.00346057
0.00367748
0.00383508
0.00396872
0.00346446
0.00372981
0.00394497
0.00413253
0.00430587
0.00350479
0.00377905
0.00402292
0.0042578
0.00449175
0.00357479
0.0038547
0.00412834
0.00442173
0.00473083
0.00365259
0.00394294
0.00425773
0.00462911
0.00502012
0.00372115
0.00402711
0.00439549
0.00485724
0.00530263
0.00376856
0.00409341
0.00451873
0.00505359
0.00547009
0.00378792
0.00412858
0.00459243
0.00513728
0.00538914
0.00377763
0.00412178
0.00457856
0.0050263
0.00493385
0.00374147
0.00407692
0.00448448
0.00472896
0.00394967
0.00368649
0.00401432
0.0043948
0.00456398
0.00367201
0.0036187
0.0039409
0.00431123
0.00446032
0.00356117
0.00354118
0.00385561
0.00422027
0.00437247
0.0034966
0.00345689
0.00375795
0.00411463
0.00427304
0.00342645
0.00336826
0.00364912
0.00398277
0.00409887
0.00319208
0.00327665
0.00352881
0.00379043
0.00360777
0.00226366
0.0031811
0.0033903
0.00343236
0.0025292
0.00243734
0.00308061
0.00323049
0.00284026
0.002597
0.00703152
0.00297006
0.00309741
0.00271845
0.0035458
0.008602
0.00283542
0.00296736
0.0027334
0.00393928
0.0085459
0.00267009
0.00280721
0.0026945
0.00390415
0.00809254
0.00247986
0.00260462
0.00256897
0.00354756
0.00731209
0.00229244
0.00238816
0.00237879
0.00308929
0.00659105
0.00213487
0.00221297
0.00220609
0.00246881
0.00486099
0.00203338
0.00213138
0.00214157
0.00198465
0.00303714
0.00180994
0.00185587
0.00187878
0.00177274
0.00185425
0.00109711
0.00112203
0.00113601
0.00114694
0.00118685
0.000917932
0.000969757
0.00102099
0.00107473
0.0011092
0.00238086
0.00228222
0.00186143
0.00153423
0.00136382
0.00313593
0.00272059
0.00148125
0.000944592
0.000942356
0.00327101
0.00255083
0.000881735
0.00330396
0.00255506
0.000800598
0.00333169
0.00257182
0.000763779
0.0033532
0.00258293
0.000759071
0.00334258
0.00252808
0.000801346
0.00332739
0.0025047
0.000889564
0.00261906
0.000998959
0.00272284
0.0011727
0.0031763
0.00189957
0.00133257
0.00137755
0.00351056
0.00310187
0.00271523
0.00263614
0.00358341
0.00374537
0.00383828
0.0039044
0.00354931
0.00383808
0.00405353
0.00423405
0.0035475
0.00384051
0.00409401
0.00433182
0.00359131
0.00388337
0.0041599
0.00444642
0.00475403
0.0036533
0.00395212
0.0042605
0.00461203
0.00500262
0.00371486
0.00402883
0.00438321
0.00481887
0.00528925
0.00376406
0.00409994
0.00451091
0.0050356
0.00554696
0.00379414
0.00415439
0.00461951
0.00520552
0.00566788
0.00380173
0.00418119
0.00467694
0.00525614
0.00553386
0.00378632
0.00417211
0.00465553
0.00512814
0.00505225
0.00375096
0.00413159
0.00457101
0.00485825
0.00411452
0.0037013
0.00407735
0.00449521
0.00471715
0.00390689
0.00364043
0.00401032
0.00441862
0.00462668
0.00382751
0.0035711
0.00392931
0.00432664
0.00453813
0.00376623
0.00349621
0.00383415
0.0042165
0.0044279
0.00368006
0.00341817
0.0037297
0.00408195
0.00423587
0.00339328
0.00333767
0.00361839
0.00389607
0.00371867
0.00240926
0.0032535
0.00349743
0.00356488
0.00274628
0.00294828
0.00316414
0.00336477
0.00306143
0.00331649
0.00813159
0.00305929
0.00325201
0.00303275
0.00448268
0.00993864
0.00292102
0.0031256
0.00308797
0.00494142
0.00991078
0.00274355
0.00295024
0.00303665
0.004879
0.00941447
0.00253586
0.00271462
0.00285649
0.00441859
0.00857557
0.00233486
0.00245746
0.00258799
0.00380175
0.00764945
0.00216778
0.00223841
0.00232335
0.00296236
0.00576129
0.00201336
0.00210098
0.0021506
0.00220946
0.00367084
0.00171217
0.00174733
0.00178913
0.00178527
0.00213437
0.00119327
0.0012133
0.00121505
0.00120985
0.00125012
0.000977314
0.00102661
0.00107734
0.00113227
0.00116566
0.0024835
0.00237104
0.00190972
0.00157423
0.00140284
0.00322637
0.00278411
0.00149592
0.0009833
0.000970708
0.00334235
0.00260596
0.000933628
0.00337517
0.00261716
0.000857279
0.00341218
0.00264568
0.000829675
0.00344653
0.00267373
0.000830621
0.00345905
0.00265108
0.000883259
0.00346402
0.00266493
0.000976875
0.00347846
0.00280639
0.00109091
0.00292145
0.00125954
0.00345139
0.0021738
0.00139908
0.00144422
0.00374554
0.00354931
0.0032181
0.00306959
0.0037257
0.00400688
0.00414346
0.00423511
0.00367704
0.00400501
0.0042648
0.00448944
0.003686
0.00400807
0.00429684
0.00457663
0.00373286
0.00405634
0.004368
0.00469754
0.00379092
0.00412653
0.00447238
0.00486752
0.0053114
0.00384583
0.00420227
0.00459435
0.00506788
0.00557843
0.00388923
0.00427175
0.00471529
0.00526095
0.00578458
0.00391648
0.00432485
0.00481169
0.0053939
0.00583596
0.00392497
0.00435197
0.0048571
0.00540907
0.00563762
0.0039141
0.00434727
0.00483526
0.005275
0.00513344
0.00388605
0.0043151
0.00476537
0.0050483
0.00431393
0.00384525
0.0042687
0.0047009
0.00493589
0.00415965
0.0037942
0.00420829
0.00463103
0.0048568
0.00409842
0.00373531
0.00413339
0.0045435
0.00476694
0.00403591
0.00367097
0.00404595
0.00443392
0.00465028
0.00393442
0.0036028
0.00394965
0.00430311
0.00445206
0.00361363
0.00353104
0.00384787
0.00413089
0.00393577
0.00263584
0.00345405
0.00374203
0.0038368
0.00310313
0.00338881
0.0033679
0.00362937
0.0034318
0.0039994
0.00896705
0.00325803
0.00352422
0.00347502
0.00537819
0.0110515
0.00310193
0.00338796
0.00357732
0.00594427
0.0110968
0.00289475
0.00318155
0.00352018