/*--------------------------------*- C++ -*----------------------------------*\
| =========                 |                                                 |
| \\      /  F ield         | OpenFOAM: The Open Source CFD Toolbox           |
|  \\    /   O peration     | Version:  2.3.1                                 |
|   \\  /    A nd           | Web:      www.OpenFOAM.org                      |
|    \\/     M anipulation  |                                                 |
\*---------------------------------------------------------------------------*/
FoamFile
{
    version     2.0;
    format      ascii;
    class       volScalarField;
    location    "600";
    object      p;
}
// * * * * * * * * * * * * * * * * * * * * * * * * * * * * * * * * * * * * * //

dimensions      [0 2 -2 0 0 0 0];

internalField   nonuniform List<scalar> 
6852
(
77.8431
77.8536
77.87
77.8894
77.834
77.8425
77.858
77.8767
77.8219
77.8319
77.8534
77.8783
77.9043
77.8193
77.8432
77.8847
77.9205
77.9521
77.8176
77.8501
77.8977
77.9298
77.9587
77.8149
77.8524
77.9043
77.9376
77.9682
77.8015
77.84
77.8936
77.9276
77.9594
77.7797
77.817
77.871
77.9046
77.9366
77.7521
77.7866
77.8395
77.871
77.9013
77.72
77.7496
77.7986
77.8262
77.853
77.6866
77.7097
77.7523
77.775
77.7967
77.6519
77.6653
77.6935
77.71
77.7261
77.6217
77.6282
77.6447
77.6549
77.6649
77.596
77.5978
77.6064
77.6117
77.6169
77.575
77.5735
77.5773
77.5794
77.5815
77.5577
77.5544
77.555
77.5552
77.5554
77.5433
77.539
77.5378
77.5368
77.5359
77.531
77.5262
77.5238
77.522
77.5205
77.5203
77.5151
77.512
77.5096
77.5075
77.5108
77.5053
77.5015
77.4985
77.496
77.5024
77.4965
77.492
77.4884
77.4852
77.4949
77.4886
77.4833
77.4789
77.475
77.4883
77.4815
77.4754
77.4699
77.4651
77.4827
77.4752
77.4681
77.4615
77.4555
77.478
77.4698
77.4615
77.4536
77.4462
77.4742
77.4652
77.4558
77.4464
77.4374
77.4717
77.4617
77.4509
77.44
77.4291
77.4703
77.4594
77.4473
77.4348
77.4219
77.4704
77.4585
77.4452
77.4311
77.4163
77.4718
77.4592
77.4448
77.4295
77.4127
77.4747
77.4617
77.4466
77.4307
77.4128
77.4789
77.4658
77.4504
77.4345
77.416
77.4843
77.4715
77.4567
77.4418
77.4247
77.4905
77.4787
77.465
77.4518
77.4368
77.4974
77.4863
77.4731
77.4604
77.4459
77.5048
77.4942
77.4817
77.4692
77.4547
77.5137
77.504
77.4926
77.4815
77.4694
77.5245
77.5168
77.5074
77.4985
77.4907
77.5364
77.5313
77.5241
77.5172
77.5117
77.5486
77.546
77.5409
77.5352
77.5303
77.5593
77.558
77.5532
77.5469
77.5406
76.821
76.8276
76.8407
76.8581
76.8103
76.8128
76.8234
76.8394
76.7881
76.7902
76.8067
76.8297
76.7745
76.7892
76.8275
76.8623
76.8951
76.7714
76.795
76.8423
76.8741
76.9044
76.7675
76.7966
76.8486
76.881
76.913
76.7529
76.7829
76.8367
76.8693
76.9021
76.7314
76.7606
76.8155
76.8474
76.8801
76.7037
76.7305
76.7849
76.8147
76.8456
76.6718
76.6938
76.7446
76.7709
76.7982
76.639
76.6545
76.6995
76.722
76.7442
76.607
76.6124
76.639
76.656
76.6723
76.5823
76.5818
76.5965
76.6072
76.6169
76.5626
76.5583
76.5649
76.5704
76.5753
76.5471
76.5411
76.5428
76.545
76.547
76.5342
76.5279
76.5271
76.5274
76.5276
76.5229
76.5169
76.5147
76.5139
76.5131
76.5127
76.507
76.5042
76.5025
76.5011
76.5035
76.4978
76.4945
76.4923
76.4904
76.495
76.4891
76.4853
76.4825
76.4801
76.4873
76.4811
76.4766
76.4732
76.4702
76.4804
76.4737
76.4684
76.4641
76.4604
76.4742
76.467
76.4607
76.4554
76.4507
76.4688
76.4609
76.4536
76.447
76.441
76.4643
76.4556
76.447
76.439
76.4315
76.4608
76.4512
76.4413
76.4315
76.4222
76.4584
76.4478
76.4364
76.4249
76.4134
76.4571
76.4455
76.4326
76.4192
76.4053
76.457
76.4446
76.4304
76.4152
76.3988
76.4583
76.4452
76.4296
76.4129
76.3938
76.461
76.4475
76.4311
76.4138
76.3929
76.465
76.4513
76.4344
76.4168
76.3935
76.4703
76.457
76.4405
76.4243
76.4023
76.4768
76.464
76.4483
76.4338
76.4137
76.4843
76.4717
76.4563
76.4421
76.4223
76.4933
76.4811
76.4661
76.4523
76.4339
76.5032
76.4931
76.4799
76.4671
76.4514
76.5132
76.5059
76.4959
76.4863
76.4761
76.5242
76.5192
76.5115
76.5037
76.4957
76.5357
76.5328
76.5267
76.5197
76.5138
76.5495
76.5477
76.5417
76.5338
76.5266
75.7952
75.796
75.8039
75.8163
75.7824
75.7791
75.7844
75.7949
75.7538
75.7486
75.7595
75.7761
75.7324
75.7347
75.7703
75.8029
75.7274
75.7401
75.789
75.819
75.8502
75.7195
75.7385
75.7953
75.8261
75.8597
75.7024
75.7221
75.7814
75.8115
75.846
75.6792
75.6987
75.7605
75.7897
75.8241
75.6501
75.6673
75.7302
75.7571
75.7894
75.6172
75.6294
75.6888
75.7125
75.7404
75.5846
75.5897
75.6429
75.6656
75.6879
75.5545
75.55
75.5733
75.5907
75.6057
75.535
75.5291
75.5406
75.5509
75.5581
75.5205
75.514
75.5187
75.5234
75.5256
75.5099
75.5032
75.5053
75.5074
75.5077
75.5018
75.4955
75.4964
75.4974
75.4969
75.495
75.4888
75.4889
75.4897
75.489
75.4888
75.4826
75.4817
75.4825
75.4819
75.4827
75.4765
75.4747
75.4751
75.4746
75.4765
75.4703
75.4677
75.4673
75.4667
75.4705
75.4639
75.4604
75.459
75.458
75.4647
75.4576
75.4529
75.4502
75.4484
75.4593
75.4513
75.4454
75.4411
75.4381
75.4543
75.4454
75.4379
75.432
75.4271
75.45
75.44
75.4308
75.4228
75.4158
75.4465
75.4353
75.4241
75.4138
75.404
75.444
75.4315
75.4182
75.4051
75.392
75.4425
75.4287
75.4131
75.397
75.3796
75.4421
75.4271
75.4093
75.3901
75.3677
75.4432
75.427
75.4068
75.3841
75.3547
75.4458
75.4289
75.4067
75.382
75.3464
75.4498
75.4325
75.4083
75.3809
75.3337
75.4557
75.4389
75.415
75.3895
75.342
75.4631
75.4473
75.4248
75.402
75.3577
75.4715
75.457
75.4359
75.4147
75.3729
75.4812
75.4682
75.4493
75.4303
75.3938
75.4924
75.4814
75.4651
75.4483
75.4182
75.5051
75.4971
75.4848
75.4721
75.4541
75.5185
75.5136
75.5042
75.4933
75.48
75.532
75.5296
75.5224
75.5133
75.5039
75.5517
75.5505
75.5429
75.532
75.5201
74.7768
74.7744
74.7793
74.7874
74.7643
74.7579
74.7623
74.7693
74.7342
74.7238
74.7341
74.7435
74.7041
74.6938
74.7315
74.7557
74.6901
74.6892
74.7416
74.7673
74.6756
74.6815
74.7444
74.7728
74.8081
74.6538
74.6598
74.7264
74.7545
74.7911
74.6278
74.6336
74.7044
74.7322
74.769
74.5961
74.6002
74.6731
74.6998
74.7344
74.5615
74.5601
74.6285
74.6542
74.6837
74.5304
74.5183
74.5781
74.6086
74.6322
74.5054
74.4838
74.4964
74.5189
74.5315
74.4936
74.4775
74.479
74.4899
74.4927
74.4865
74.4739
74.4713
74.4745
74.4725
74.4817
74.4721
74.47
74.4711
74.4684
74.4779
74.4707
74.4693
74.47
74.4674
74.4741
74.4681
74.4674
74.4682
74.4663
74.4698
74.4644
74.4639
74.4648
74.4638
74.4652
74.4595
74.4589
74.4598
74.4593
74.4601
74.4539
74.4527
74.4532
74.4529
74.4547
74.4478
74.4456
74.4454
74.4447
74.4492
74.4415
74.4378
74.4365
74.4351
74.4439
74.4351
74.4295
74.4267
74.4242
74.439
74.429
74.4213
74.4162
74.4119
74.4345
74.4231
74.4132
74.4053
74.3984
74.4308
74.4178
74.4053
74.3942
74.3838
74.428
74.4132
74.3978
74.383
74.3679
74.4263
74.4097
74.3909
74.3716
74.35
74.4258
74.4074
74.3852
74.3611
74.3312
74.4267
74.4066
74.3803
74.3503
74.3071
74.4295
74.4083
74.3788
74.345
74.2897
74.4341
74.4121
74.3786
74.3389
74.2558
74.4412
74.4205
74.3877
74.3523
74.2705
74.4502
74.4316
74.4015
74.3709
74.2951
74.4604
74.444
74.417
74.3896
74.3195
74.4717
74.4581
74.4354
74.4123
74.3538
74.4839
74.4735
74.4553
74.4362
74.3895
74.4971
74.4906
74.4786
74.4669
74.4453
74.511
74.5075
74.4987
74.4882
74.4716
74.5257
74.5245
74.518
74.5088
74.4969
74.5494
74.5499
74.5429
74.5313
74.5161
73.7655
73.763
73.7691
73.7775
73.7557
73.7492
73.757
73.765
73.7269
73.7144
73.7333
73.7432
73.6885
73.669
73.7229
73.7433
73.662
73.652
73.7059
73.7288
73.6414
73.638
73.7025
73.7293
73.6183
73.6108
73.6791
73.7054
73.7445
73.5945
73.5829
73.6558
73.6815
73.7211
73.5672
73.5507
73.6237
73.648
73.6853
73.5385
73.511
73.5745
73.5995
73.6315
73.5095
73.4711
73.5162
73.5497
73.5744
73.4815
73.4412
73.4283
73.4566
73.4652
73.4734
73.4476
73.4358
73.4449
73.4383
73.4695
73.4507
73.4374
73.436
73.4267
73.4671
73.4539
73.4447
73.4436
73.4389
73.465
73.4555
73.4501
73.4495
73.4469
73.4623
73.4548
73.4518
73.4517
73.4502
73.4587
73.4521
73.4504
73.4508
73.4501
73.4544
73.448
73.4467
73.4473
73.4473
73.4496
73.4428
73.4412
73.4416
73.4419
73.4443
73.4369
73.4343
73.4342
73.4344
73.4388
73.4303
73.4265
73.4254
73.4249
73.4332
73.4235
73.4179
73.4153
73.4136
73.4277
73.4166
73.4088
73.4041
73.4005
73.4227
73.41
73.3994
73.3917
73.3855
73.4183
73.4038
73.39
73.3785
73.3682
73.4148
73.3981
73.3809
73.3647
73.3482
73.4123
73.3933
73.3717
73.3494
73.3237
73.4112
73.3897
73.3632
73.3338
73.295
73.4115
73.3873
73.3543
73.3149
73.2506
73.414
73.3881
73.3493
73.3025
73.2114
73.4184
73.3908
73.3433
73.2811
73.1076
73.4264
73.4006
73.3538
73.2977
73.1221
73.4368
73.4142
73.3717
73.3226
73.1585
73.4484
73.4294
73.3925
73.3496
73.2004
73.4609
73.4463
73.4171
73.3831
73.2615
73.4736
73.4633
73.4418
73.4161
73.324
73.4866
73.4812
73.4697
73.4589
73.431
73.4985
73.496
73.4882
73.4785
73.458
73.5108
73.5108
73.5058
73.4985
73.4869
73.5266
73.5276
73.5221
73.5124
73.4986
72.7564
72.7539
72.7621
72.7717
72.7462
72.7376
72.7491
72.7591
72.7188
72.6975
72.7252
72.7369
72.6744
72.5983
72.7108
72.7437
72.6462
72.5525
72.6565
72.6983
72.6266
72.5332
72.653
72.6947
72.6049
72.515
72.635
72.6681
72.583
72.5001
72.6204
72.6445
72.6853
72.5595
72.4815
72.5986
72.6118
72.6481
72.5319
72.4611
72.552
72.554
72.5833
72.5012
72.4442
72.4667
72.4536
72.4665
72.4662
72.4045
72.2728
72.2607
72.2544
72.4639
72.4296
72.384
72.3788
72.3722
72.4629
72.4377
72.4095
72.3971
72.3867
72.4621
72.4439
72.4267
72.4185
72.4114
72.4607
72.4471
72.4364
72.4309
72.4257
72.458
72.4471
72.4399
72.4363
72.4333
72.4542
72.4448
72.4393
72.4368
72.435
72.4493
72.4407
72.436
72.4339
72.4327
72.4437
72.4353
72.4306
72.4286
72.4275
72.4376
72.4289
72.4239
72.4213
72.42
72.4312
72.4219
72.416
72.4126
72.4106
72.4247
72.4145
72.4072
72.4024
72.3992
72.4182
72.4067
72.3976
72.391
72.3858
72.4121
72.3987
72.3873
72.378
72.37
72.4066
72.3911
72.3764
72.3632
72.351
72.4021
72.3841
72.3653
72.3472
72.3286
72.3987
72.3779
72.3542
72.3292
72.3
72.3968
72.3731
72.3436
72.3106
72.2661
72.3966
72.3696
72.3322
72.2869
72.2093
72.3989
72.3698
72.3259
72.2725
72.1632
72.4032
72.3719
72.3168
72.243
72.0105
72.4119
72.3831
72.3304
72.267
72.0536
72.4229
72.3978
72.3506
72.2945
72.096
72.435
72.4143
72.3739
72.3249
72.1449
72.4478
72.4321
72.401
72.3629
72.2196
72.4601
72.4491
72.4264
72.397
72.2791
72.4722
72.4663
72.4545
72.4404
72.4046
72.4824
72.4789
72.4701
72.4583
72.4336
72.4925
72.4916
72.4863
72.4787
72.4667
72.5029
72.5031
72.4979
72.4893
72.4767
71.7536
71.7384
71.7032
71.691
71.7022
71.691
71.6774
71.6647
71.6569
71.6426
71.6368
71.6201
71.6505
71.5975
71.5795
71.6071
71.5955
71.5753
71.6009
70.7927
70.7343
70.7074
70.6539
70.7142
70.6636
70.6906
70.6389
70.6702
70.6171
70.6508
70.5959
70.605
70.5468
70.5827
70.648
70.5845
70.6159
-7.91144
-7.91247
-7.9149
-7.91974
-7.92399
-7.91061
-7.91163
-7.91432
-7.91994
-7.92398
-7.90985
-7.91104
-7.91458
-7.92307
-7.92534
-7.90914
-7.90993
-7.90942
-7.91051
-7.90967
-7.91075
-7.91089
-7.91209
-7.91264
-7.91403
-7.91491
-7.91662
-7.91802
-7.92037
-7.92158
-7.92483
-7.92784
-7.93656
-7.94948
-7.9447
-7.9447
-7.9292
-7.93411
-7.94064
-7.94176
-7.94294
-7.93087
-7.93369
-7.93817
-7.94003
-7.94164
-7.93314
-7.9346
-7.93733
-7.93924
-7.94113
-7.9358
-7.93643
-7.9382
-7.94002
-7.94193
-7.93859
-7.93871
-7.93989
-7.9415
-7.94329
-7.94127
-7.94105
-7.94183
-7.94319
-7.94474
-7.94373
-7.94324
-7.94369
-7.94477
-7.94593
-7.94599
-7.94526
-7.94543
-7.94619
-7.94679
-7.94813
-7.9472
-7.94711
-7.94754
-7.94741
-7.95025
-7.94922
-7.94895
-7.94921
-7.94872
-7.95244
-7.95138
-7.95105
-7.95144
-7.95077
-7.95476
-7.95373
-7.95348
-7.95425
-7.95452
-7.95718
-7.95614
-7.95587
-7.95666
-7.95708
-7.95976
-7.95874
-7.95849
-7.95939
-7.96004
-7.96256
-7.96161
-7.96148
-7.96266
-7.96369
-7.9656
-7.96483
-7.96493
-7.96673
-7.96831
-7.96892
-7.96851
-7.969
-7.97203
-7.97444
-7.97251
-7.97273
-7.97395
-7.97955
-7.9833
-7.9763
-7.97747
-7.97977
-7.99008
-7.99556
-7.98022
-7.98287
-7.98714
-8.00893
-8.0195
-7.98376
-7.9876
-7.99256
-8.02152
-8.02596
-7.98678
-7.99131
-7.99639
-8.02668
-8.02997
-7.98924
-7.99392
-7.99882
-8.02664
-8.02989
-7.99112
-7.9958
-8.00099
-8.02462
-8.03278
-7.99176
-7.99595
-8.00079
-8.01852
-8.02818
-7.99109
-7.99505
-8.00045
-8.0143
-8.03504
-7.98837
-7.9915
-7.99529
-8.00198
-8.00944
-7.98578
-7.9888
-7.99265
-7.99842
-8.00542
-7.98333
-7.98643
-7.99032
-7.99567
-8.00126
-8.92202
-8.92306
-8.92544
-8.93026
-8.93439
-8.9218
-8.92293
-8.92535
-8.93094
-8.93459
-8.92162
-8.92285
-8.92591
-8.93513
-8.93639
-8.9208
-8.92067
-8.92043
-8.92108
-8.92134
-8.92138
-8.92163
-8.92269
-8.92313
-8.92449
-8.92517
-8.9268
-8.92779
-8.92997
-8.93155
-8.93343
-8.93559
-8.94018
-8.94839
-8.96365
-8.95661
-8.95598
-8.94172
-8.9449
-8.95147
-8.95264
-8.95428
-8.94389
-8.94554
-8.95005
-8.9517
-8.95338
-8.94635
-8.94713
-8.94976
-8.95146
-8.95333
-8.94895
-8.94925
-8.95091
-8.95258
-8.95444
-8.9515
-8.95151
-8.95261
-8.95413
-8.95586
-8.95384
-8.95364
-8.95439
-8.95572
-8.95723
-8.95596
-8.95555
-8.95601
-8.95709
-8.95816
-8.95792
-8.95731
-8.95748
-8.95822
-8.95854
-8.95984
-8.95903
-8.95891
-8.95923
-8.95842
-8.96185
-8.96088
-8.96054
-8.96056
-8.95897
-8.96402
-8.96297
-8.96256
-8.96266
-8.96114
-8.96641
-8.96532
-8.96494
-8.96535
-8.96492
-8.96893
-8.96778
-8.96729
-8.96755
-8.96708
-8.97165
-8.97051
-8.96997
-8.97025
-8.96995
-8.9746
-8.97355
-8.97304
-8.9735
-8.97343
-8.97781
-8.97695
-8.9766
-8.97748
-8.97774
-8.9813
-8.98079
-8.98078
-8.98255
-8.98332
-8.98506
-8.98513
-8.98571
-8.98919
-8.99065
-8.98901
-8.98993
-8.99137
-8.998
-9.00016
-8.99301
-8.99514
-8.99784
-9.00964
-9.01296
-8.9967
-8.99989
-9.00304
-9.01796
-9.01593
-9.00001
-9.00391
-9.00722
-9.0231
-9.01967
-9.00277
-9.0069
-9.0101
-9.02476
-9.02004
-9.00499
-9.00929
-9.01323
-9.02714
-9.02914
-9.00571
-9.00967
-9.01345
-9.02405
-9.02704
-9.00465
-9.00864
-9.01361
-9.02478
-9.03994
-9.00093
-9.00426
-9.00801
-9.01416
-9.01979
-8.99672
-8.99985
-9.00345
-9.00849
-9.0132
-8.99103
-8.99441
-8.99832
-9.00329
-9.00808
-9.93265
-9.93388
-9.93637
-9.94131
-9.94527
-9.93264
-9.93399
-9.93644
-9.94217
-9.94553
-9.93277
-9.93427
-9.93742
-9.94685
-9.9474
-9.93211
-9.93198
-9.93145
-9.93264
-9.93257
-9.93258
-9.93294
-9.93295
-9.9343
-9.93453
-9.93612
-9.93659
-9.93841
-9.93911
-9.94159
-9.94274
-9.94494
-9.94622
-9.95209
-9.95867
-9.97507
-9.96755
-9.95408
-9.95584
-9.96288
-9.96383
-9.96569
-9.95698
-9.95783
-9.9626
-9.96403
-9.9657
-9.95974
-9.96014
-9.96282
-9.96441
-9.96628
-9.9624
-9.9626
-9.96433
-9.96597
-9.96784
-9.96477
-9.96483
-9.96603
-9.96761
-9.96942
-9.96682
-9.96677
-9.96765
-9.96912
-9.97079
-9.96862
-9.9684
-9.96903
-9.9703
-9.9716
-9.9703
-9.96989
-9.97021
-9.97117
-9.97171
-9.97199
-9.97135
-9.97133
-9.97179
-9.97101
-9.97384
-9.97299
-9.97266
-9.97269
-9.97083
-9.97592
-9.97493
-9.9744
-9.97438
-9.9723
-9.97828
-9.97719
-9.97661
-9.97679
-9.97608
-9.98081
-9.97957
-9.97876
-9.97858
-9.97753
-9.9836
-9.9823
-9.98137
-9.98107
-9.98009
-9.98664
-9.98535
-9.98441
-9.98415
-9.98334
-9.98992
-9.98878
-9.98795
-9.98798
-9.98744
-9.99345
-9.99265
-9.99211
-9.99284
-9.99277
-9.9972
-9.99696
-9.99692
-9.99901
-9.99963
-10.0011
-10.0018
-10.0025
-10.0074
-10.009
-10.0052
-10.0069
-10.0088
-10.0169
-10.0215
-10.0091
-10.0119
-10.0146
-10.0261
-10.0278
-10.0128
-10.0164
-10.0193
-10.032
-10.0298
-10.0161
-10.02
-10.0226
-10.0343
-10.0292
-10.0192
-10.0233
-10.0266
-10.0383
-10.0406
-10.0208
-10.0244
-10.0273
-10.0354
-10.0366
-10.0205
-10.024
-10.028
-10.0367
-10.0482
-10.0166
-10.0198
-10.0229
-10.0278
-10.0322
-10.0112
-10.0144
-10.0176
-10.0216
-10.0247
-10.004
-10.0078
-10.0116
-10.0159
-10.0194
-10.9434
-10.9448
-10.9474
-10.9526
-10.9565
-10.9435
-10.9451
-10.9477
-10.9537
-10.9569
-10.9438
-10.9457
-10.9491
-10.959
-10.9589
-10.9432
-10.9432
-10.9427
-10.9439
-10.944
-10.944
-10.9445
-10.9445
-10.9445
-10.9459
-10.9461
-10.9477
-10.948
-10.9499
-10.9504
-10.9532
-10.9539
-10.9565
-10.9569
-10.9642
-10.9694
-10.9873
-10.9796
-10.9668
-10.9677
-10.9757
-10.9763
-10.9702
-10.9708
-10.976
-10.9772
-10.9788
-10.9731
-10.9734
-10.9763
-10.9779
-10.9798
-10.9756
-10.976
-10.9779
-10.9796
-10.9816
-10.9778
-10.978
-10.9794
-10.9812
-10.9832
-10.9795
-10.9797
-10.9808
-10.9826
-10.9846
-10.9811
-10.9811
-10.9819
-10.9835
-10.9853
-10.9825
-10.9823
-10.9828
-10.9841
-10.985
-10.984
-10.9835
-10.9836
-10.9842
-10.9837
-10.9857
-10.9849
-10.9845
-10.9845
-10.9827
-10.9877
-10.9866
-10.9859
-10.9856
-10.9834
-10.99
-10.9887
-10.9878
-10.9876
-10.9866
-10.9925
-10.991
-10.9898
-10.989
-10.9875
-10.9953
-10.9937
-10.9923
-10.9913
-10.9898
-10.9983
-10.9966
-10.9952
-10.9942
-10.9928
-11.0015
-11
-10.9986
-10.9977
-10.9965
-11.0049
-11.0037
-11.0025
-11.0021
-11.0013
-11.0085
-11.0078
-11.007
-11.0075
-11.0071
-11.0123
-11.0124
-11.0123
-11.0148
-11.0153
-11.0162
-11.0172
-11.0178
-11.0221
-11.026
-11.0203
-11.0224
-11.0238
-11.0309
-11.0339
-11.0244
-11.0273
-11.0289
-11.0372
-11.0348
-11.0285
-11.0316
-11.0327
-11.0402
-11.032
-11.0328
-11.036
-11.0378
-11.0458
-11.0447
-11.0358
-11.0384
-11.0395
-11.0443
-11.0413
-11.0369
-11.0393
-11.0412
-11.0465
-11.0527
-11.034
-11.036
-11.0375
-11.04
-11.0417
-11.0284
-11.0308
-11.0326
-11.0344
-11.0351
-11.0209
-11.0242
-11.0267
-11.0291
-11.0304
-11.954
-11.9557
-11.9585
-11.964
-11.9679
-11.9543
-11.9562
-11.959
-11.9654
-11.9684
-11.9549
-11.9571
-11.961
-11.9715
-11.9707
-11.9543
-11.9545
-11.954
-11.9552
-11.9554
-11.9555
-11.9559
-11.956
-11.956
-11.9574
-11.9575
-11.9576
-11.9593
-11.9594
-11.9614
-11.9615
-11.9647
-11.9649
-11.968
-11.9675
-11.9763
-11.9803
-11.9989
-11.9914
-11.9794
-11.9799
-11.9884
-11.9889
-11.9832
-11.9837
-11.9891
-11.9903
-11.986
-11.9864
-11.9894
-11.9912
-11.9931
-11.9884
-11.9889
-11.9911
-11.993
-11.9951
-11.9903
-11.9908
-11.9924
-11.9945
-11.9968
-11.992
-11.9924
-11.9937
-11.9957
-11.9981
-11.9934
-11.9936
-11.9946
-11.9964
-11.9985
-11.9947
-11.9946
-11.9952
-11.9966
-11.9977
-11.9961
-11.9957
-11.9957
-11.9962
-11.9959
-11.9977
-11.9968
-11.9962
-11.996
-11.9941
-11.9996
-11.9984
-11.9973
-11.9966
-11.9943
-12.0019
-12.0004
-11.999
-11.9982
-11.9969
-12.0043
-12.0025
-12.0008
-11.9994
-11.9976
-12.007
-12.0051
-12.0032
-12.0017
-11.9998
-12.0099
-12.0079
-12.006
-12.0044
-12.0026
-12.0129
-12.0111
-12.0093
-12.0078
-12.006
-12.0162
-12.0147
-12.013
-12.0118
-12.0103
-12.0196
-12.0186
-12.0172
-12.0166
-12.0153
-12.0233
-12.023
-12.0223
-12.0231
-12.0224
-12.0272
-12.0278
-12.0272
-12.0287
-12.0296
-12.0316
-12.0332
-12.0335
-12.0379
-12.039
-12.0364
-12.0388
-12.0395
-12.0452
-12.0437
-12.0415
-12.044
-12.0443
-12.0495
-12.0421
-12.047
-12.0495
-12.0503
-12.0563
-12.0537
-12.0516
-12.0533
-12.0531
-12.056
-12.051
-12.0544
-12.0555
-12.0557
-12.0584
-12.0609
-12.0528
-12.0535
-12.0533
-12.0537
-12.0531
-12.0478
-12.049
-12.0491
-12.049
-12.0477
-12.0411
-12.0431
-12.0441
-12.0445
-12.0437
-12.9646
-12.9664
-12.9696
-12.9756
-12.9794
-12.9652
-12.9673
-12.9704
-12.9773
-12.9802
-12.966
-12.9686
-12.973
-12.9842
-12.9827
-12.9654
-12.9658
-12.9654
-12.9664
-12.9668
-12.967
-12.9673
-12.9674
-12.9675
-12.9689
-12.9689
-12.969
-12.9709
-12.9707
-12.9706
-12.9728
-12.9725
-12.9762
-12.976
-12.9795
-12.978
-12.9883
-12.9913
-13.0099
-13.0031
-12.9917
-12.992
-13.0008
-13.0013
-12.9956
-12.9963
-13.0017
-13.0031
-12.9984
-12.999
-13.0021
-13.004
-13.0008
-13.0015
-13.0037
-13.0059
-13.0083
-13.0027
-13.0034
-13.0052
-13.0074
-13.0099
-13.0043
-13.005
-13.0064
-13.0086
-13.0111
-13.0057
-13.0061
-13.0072
-13.009
-13.0111
-13.0071
-13.0071
-13.0076
-13.0088
-13.0098
-13.0084
-13.008
-13.0077
-13.008
-13.0074
-13.01
-13.009
-13.008
-13.0072
-13.0051
-13.0118
-13.0104
-13.0089
-13.0076
-13.005
-13.014
-13.0123
-13.0106
-13.0092
-13.0075
-13.0163
-13.0144
-13.0123
-13.0104
-13.0081
-13.0189
-13.0169
-13.0147
-13.0126
-13.0102
-13.0217
-13.0196
-13.0174
-13.0153
-13.0129
-13.0247
-13.0227
-13.0206
-13.0185
-13.0162
-13.0278
-13.0262
-13.0242
-13.0223
-13.0201
-13.0312
-13.0301
-13.0283
-13.0267
-13.0244
-13.035
-13.0346
-13.0331
-13.0324
-13.0301
-13.0392
-13.0394
-13.0378
-13.0372
-13.0337
-13.0441
-13.045
-13.044
-13.0457
-13.0427
-13.0497
-13.0513
-13.0507
-13.0537
-13.0504
-13.0557
-13.0574
-13.0566
-13.0594
-13.0534
-13.0623
-13.064
-13.0635
-13.0675
-13.0646
-13.0682
-13.0689
-13.0674
-13.0685
-13.063
-13.0724
-13.0723
-13.0709
-13.0714
-13.0713
-13.0723
-13.0717
-13.0697
-13.0681
-13.0657
-13.0679
-13.0678
-13.0663
-13.0643
-13.0614
-13.0622
-13.0629
-13.0622
-13.0609
-13.0583
-13.975
-13.977
-13.9805
-13.9871
-13.9911
-13.9759
-13.9783
-13.9818
-13.9893
-13.992
-13.9771
-13.98
-13.985
-13.9972
-13.9948
-13.9765
-13.977
-13.9767
-13.9777
-13.9781
-13.9784
-13.9786
-13.9787
-13.9788
-13.9803
-13.9802
-13.9802
-13.9824
-13.9821
-13.9818
-13.9849
-13.9841
-13.9835
-13.9876
-13.9869
-13.9908
-13.9884
-13.9998
-14.002
-14.02
-14.0143
-14.0034
-14.0036
-14.0124
-14.0132
-14.0075
-14.0083
-14.0137
-14.0153
-14.0103
-14.0111
-14.0144
-14.0165
-14.013
-14.0139
-14.0163
-14.0186
-14.015
-14.016
-14.0179
-14.0202
-14.0227
-14.0168
-14.0177
-14.0192
-14.0213
-14.0237
-14.0183
-14.0189
-14.02
-14.0216
-14.0234
-14.0197
-14.0199
-14.0203
-14.0211
-14.0217
-14.0211
-14.0207
-14.0202
-14.02
-14.019
-14.0227
-14.0216
-14.0203
-14.0191
-14.0165
-14.0245
-14.023
-14.0211
-14.0194
-14.0164
-14.0266
-14.0249
-14.0229
-14.0211
-14.019
-14.0289
-14.027
-14.0247
-14.0225
-14.0197
-14.0315
-14.0295
-14.0272
-14.0248
-14.0219
-14.0342
-14.0323
-14.0299
-14.0275
-14.0247
-14.0372
-14.0355
-14.0332
-14.0308
-14.028
-14.0405
-14.0391
-14.0369
-14.0345
-14.0317
-14.0442
-14.0432
-14.0411
-14.0388
-14.0356
-14.0484
-14.0479
-14.0459
-14.0438
-14.0395
-14.0531
-14.053
-14.0506
-14.0483
-14.0422
-14.0587
-14.059
-14.0569
-14.0558
-14.0498
-14.0651
-14.0659
-14.0642
-14.064
-14.0589
-14.0719
-14.0726
-14.071
-14.0706
-14.064
-14.0793
-14.0799
-14.0785
-14.08
-14.0769
-14.0858
-14.0856
-14.0832
-14.0823
-14.0771
-14.0909
-14.0899
-14.0872
-14.0857
-14.0841
-14.0916
-14.0902
-14.087
-14.0836
-14.08
-14.0879
-14.0869
-14.0842
-14.0807
-14.0767
-14.0831
-14.0828
-14.0809
-14.0781
-14.0742
-14.9852
-14.9875
-14.9914
-14.9987
-15.0028
-14.9866
-14.9892
-14.9931
-15.0013
-15.004
-14.988
-14.9913
-14.9971
-15.0104
-15.0071
-14.9876
-14.9881
-14.988
-14.9888
-14.9893
-14.9897
-14.9898
-14.9899
-14.99
-14.9916
-14.9913
-14.9912
-14.9938
-14.9932
-14.9928
-14.9964
-14.9951
-14.9943
-15.0005
-14.9988
-14.9976
-15.0016
-14.9982
-15.0108
-15.0123
-15.0294
-15.0252
-15.0146
-15.0147
-15.0235
-15.0249
-15.0191
-15.02
-15.0254
-15.0274
-15.0222
-15.0233
-15.0267
-15.0291
-15.0252
-15.0265
-15.029
-15.0314
-15.0276
-15.0289
-15.0309
-15.0332
-15.0297
-15.0308
-15.0325
-15.0344
-15.0364
-15.0314
-15.0323
-15.0333
-15.0347
-15.036
-15.033
-15.0333
-15.0336
-15.0341
-15.0341
-15.0345
-15.0342
-15.0336
-15.033
-15.0314
-15.0361
-15.0352
-15.0338
-15.0322
-15.0292
-15.038
-15.0366
-15.0347
-15.0326
-15.0292
-15.0401
-15.0386
-15.0366
-15.0345
-15.0318
-15.0425
-15.0407
-15.0385
-15.0361
-15.0328
-15.0451
-15.0434
-15.0411
-15.0386
-15.0352
-15.048
-15.0464
-15.0441
-15.0415
-15.0381
-15.0513
-15.0499
-15.0477
-15.045
-15.0416
-15.055
-15.0539
-15.0517
-15.0489
-15.0453
-15.0592
-15.0585
-15.0563
-15.0533
-15.0491
-15.0641
-15.0637
-15.0613
-15.058
-15.0518
-15.0696
-15.0694
-15.0665
-15.0626
-15.0559
-15.0759
-15.0758
-15.0731
-15.0695
-15.0617
-15.083
-15.0832
-15.081
-15.0784
-15.0721
-15.0903
-15.0903
-15.0881
-15.0855
-15.0781
-15.098
-15.0978
-15.0958
-15.0954
-15.0919
-15.1046
-15.1035
-15.1005
-15.0984
-15.0933
-15.1102
-15.1084
-15.1046
-15.1017
-15.099
-15.1105
-15.1087
-15.1047
-15.1002
-15.0958
-15.1074
-15.1058
-15.1024
-15.098
-15.0932
-15.1033
-15.1024
-15.0997
-15.096
-15.0913
-15.9952
-15.9977
-16.0021
-16.0103
-16.0147
-15.9971
-16
-16.0043
-16.0134
-16.0161
-15.9989
-16.0026
-16.0091
-16.0238
-16.0196
-15.9985
-15.9991
-15.9991
-15.9999
-16.0004
-16.0008
-16.001
-16.0009
-16.0009
-16.0028
-16.0023
-16.002
-16.005
-16.0041
-16.0035
-16.0077
-16.0058
-16.0047
-16.0119
-16.0096
-16.008
-16.0152
-16.012
-16.0075
-16.0213
-16.0221
-16.0386
-16.0362
-16.0256
-16.0256
-16.0344
-16.0366
-16.0307
-16.0319
-16.0374
-16.0399
-16.0344
-16.0358
-16.0393
-16.042
-16.0379
-16.0396
-16.0423
-16.0448
-16.0408
-16.0424
-16.0447
-16.0469
-16.0433
-16.0448
-16.0466
-16.0483
-16.0454
-16.0466
-16.0477
-16.0488
-16.0495
-16.0472
-16.0479
-16.0482
-16.0483
-16.0478
-16.0489
-16.049
-16.0484
-16.0475
-16.0454
-16.0507
-16.0502
-16.0488
-16.047
-16.0437
-16.0527
-16.0517
-16.0499
-16.0477
-16.0439
-16.055
-16.0539
-16.052
-16.0497
-16.0465
-16.0575
-16.0563
-16.0542
-16.0516
-16.0478
-16.0604
-16.0592
-16.057
-16.0544
-16.0504
-16.0637
-16.0625
-16.0604
-16.0576
-16.0534
-16.0674
-16.0665
-16.0643
-16.0614
-16.0571
-16.0717
-16.071
-16.0688
-16.0655
-16.0609
-16.0767
-16.0763
-16.0739
-16.0703
-16.065
-16.0824
-16.0821
-16.0793
-16.0748
-16.0673
-16.0889
-16.0886
-16.0854
-16.0806
-16.0749
-16.0958
-16.0954
-16.0922
-16.0871
-16.0786
-16.1034
-16.1031
-16.1004
-16.0966
-16.0899
-16.1108
-16.1102
-16.1075
-16.1037
-16.0959
-16.1183
-16.1176
-16.1148
-16.1134
-16.11
-16.1247
-16.1231
-16.1191
-16.1163
-16.1113
-16.1295
-16.1273
-16.1228
-16.119
-16.1156
-16.13
-16.1275
-16.1229
-16.1177
-16.1129
-16.1257
-16.1242
-16.1206
-16.1159
-16.1107
-16.1227
-16.1216
-16.1184
-16.1144
-16.1091
-17.0049
-17.0077
-17.0127
-17.0219
-17.0265
-17.0074
-17.0106
-17.0155
-17.0256
-17.0283
-17.0097
-17.0137
-17.0212
-17.0374
-17.0322
-17.0093
-17.01
-17.0101
-17.0109
-17.0113
-17.0118
-17.0119
-17.0118
-17.0117
-17.0138
-17.0131
-17.0126
-17.0161
-17.0147
-17.0139
-17.0186
-17.0163
-17.0147
-17.0228
-17.02
-17.018
-17.0257
-17.0217
-17.0162
-17.0326
-17.0318
-17.0319
-17.0484
-17.0478
-17.0367
-17.0366
-17.0458
-17.049
-17.0428
-17.0443
-17.05
-17.053
-17.0472
-17.0489
-17.0528
-17.0559
-17.0514
-17.0535
-17.0566
-17.0592
-17.0549
-17.0571
-17.0595
-17.0618
-17.058
-17.06
-17.0619
-17.0636
-17.0606
-17.0622
-17.0635
-17.0644
-17.0628
-17.0639
-17.0644
-17.0643
-17.0632
-17.0648
-17.0654
-17.065
-17.0639
-17.0614
-17.0669
-17.0669
-17.0658
-17.0639
-17.0602
-17.0691
-17.0687
-17.0672
-17.0649
-17.0607
-17.0716
-17.0711
-17.0695
-17.0671
-17.0633
-17.0744
-17.0738
-17.072
-17.0693
-17.0648
-17.0777
-17.077
-17.0751
-17.0722
-17.0676
-17.0814
-17.0808
-17.0788
-17.0758
-17.071
-17.0857
-17.0853
-17.0833
-17.0799
-17.075
-17.0907
-17.0905
-17.0882
-17.0843
-17.0791
-17.0966
-17.0965
-17.094
-17.0896
-17.0836
-17.1032
-17.103
-17.0998
-17.0941
-17.0859
-17.1106
-17.1103
-17.1069
-17.1016
-17.0974
-17.1183
-17.1176
-17.1137
-17.1079
-17.0996
-17.1263
-17.1257
-17.1222
-17.1178
-17.1114
-17.1336
-17.1327
-17.1291
-17.1246
-17.1169
-17.1405
-17.1393
-17.1357
-17.1336
-17.1307
-17.146
-17.1439
-17.1393
-17.1361
-17.1312
-17.1497
-17.1471
-17.1421
-17.1378
-17.1339
-17.1502
-17.1471
-17.1419
-17.1363
-17.1311
-17.1446
-17.1431
-17.1391
-17.1344
-17.1291
-17.1425
-17.1411
-17.1374
-17.1331
-17.1274
-18.0144
-18.0175
-18.0231
-18.0335
-18.0385
-18.0175
-18.021
-18.0265
-18.0379
-18.0406
-18.0203
-18.0248
-18.0332
-18.0514
-18.045
-18.02
-18.0207
-18.0209
-18.0217
-18.0221
-18.0225
-18.0228
-18.0224
-18.0222
-18.0247
-18.0237
-18.023
-18.0269
-18.0252
-18.024
-18.0293
-18.0265
-18.0243
-18.0334
-18.03
-18.0276
-18.0359
-18.031
-18.0243
-18.0435
-18.0427
-18.0423
-18.0593
-18.0606
-18.0484
-18.0484
-18.0484
-18.0583
-18.0626
-18.0555
-18.0575
-18.0638
-18.0674
-18.0609
-18.0632
-18.0676
-18.071
-18.0661
-18.0688
-18.0722
-18.0751
-18.0704
-18.0731
-18.0759
-18.0782
-18.0742
-18.0768
-18.079
-18.0806
-18.0773
-18.0796
-18.0811
-18.0819
-18.08
-18.0818
-18.0826
-18.0824
-18.0825
-18.0837
-18.0836
-18.0825
-18.0795
-18.0848
-18.0856
-18.0848
-18.0829
-18.0789
-18.0874
-18.0878
-18.0866
-18.0843
-18.0797
-18.0902
-18.0904
-18.0891
-18.0866
-18.0823
-18.0933
-18.0934
-18.0918
-18.0889
-18.084
-18.0969
-18.097
-18.0953
-18.0921
-18.087
-18.1011
-18.1012
-18.0993
-18.0959
-18.0907
-18.1061
-18.1062
-18.1042
-18.1005
-18.0951
-18.1118
-18.112
-18.1096
-18.1052
-18.0995
-18.1186
-18.1187
-18.1161
-18.111
-18.1046
-18.1261
-18.1258
-18.1223
-18.1158
-18.107
-18.1345
-18.134
-18.1304
-18.1247
-18.1212
-18.1429
-18.142
-18.1377
-18.1312
-18.1234
-18.1512
-18.1503
-18.1467
-18.1415
-18.1355
-18.1584
-18.157
-18.1533
-18.148
-18.1401
-18.1648
-18.1628
-18.1589
-18.1559
-18.1529
-18.1697
-18.1664
-18.1613
-18.1578
-18.1524
-18.1726
-18.1687
-18.163
-18.1582
-18.1535
-18.1724
-18.1682
-18.1621
-18.156
-18.1503
-18.1665
-18.1637
-18.1588
-18.1537
-18.148
-18.1631
-18.1611
-18.1568
-18.1521
-18.146
-19.0236
-19.027
-19.0334
-19.0451
-19.0506
-19.0274
-19.0313
-19.0375
-19.0502
-19.0531
-19.0307
-19.0357
-19.0452
-19.0655
-19.058
-19.0305
-19.0313
-19.0315
-19.0323
-19.0327
-19.0331
-19.0335
-19.0329
-19.0325
-19.0353
-19.034
-19.0332
-19.0375
-19.0354
-19.0339
-19.0399
-19.0365
-19.0338
-19.0439
-19.0399
-19.0368
-19.0462
-19.0402
-19.0323
-19.0547
-19.0541
-19.0534
-19.0719
-19.075
-19.0605
-19.0608
-19.0612
-19.0723
-19.0776
-19.0676
-19.0694
-19.072
-19.0791
-19.0834
-19.076
-19.079
-19.084
-19.0879
-19.0823
-19.0857
-19.0896
-19.0927
-19.0876
-19.091
-19.0942
-19.0965
-19.0921
-19.0955
-19.098
-19.0995
-19.0959
-19.0989
-19.1008
-19.1014
-19.0992
-19.1017
-19.1028
-19.1025
-19.102
-19.1041
-19.1043
-19.1032
-19.1047
-19.1063
-19.1059
-19.104
-19.0996
-19.1075
-19.1088
-19.108
-19.1056
-19.1007
-19.1106
-19.1116
-19.1106
-19.108
-19.1034
-19.114
-19.1148
-19.1135
-19.1105
-19.1052
-19.1179
-19.1187
-19.1172
-19.1138
-19.1084
-19.1226
-19.1232
-19.1215
-19.1179
-19.1124
-19.1281
-19.1287
-19.1267
-19.1228
-19.117
-19.1345
-19.135
-19.1326
-19.1278
-19.1217
-19.1421
-19.1423
-19.1395
-19.1341
-19.1272
-19.1504
-19.15
-19.1461
-19.139
-19.1299
-19.1597
-19.1591
-19.1552
-19.1491
-19.1459
-19.1687
-19.1675
-19.1631
-19.156
-19.1487
-19.1774
-19.1758
-19.1721
-19.1663
-19.1604
-19.1848
-19.1823
-19.1786
-19.1726
-19.1642
-19.1911
-19.1876
-19.1834
-19.1794
-19.1753
-19.1955
-19.1907
-19.1849
-19.1807
-19.1749
-19.1977
-19.1921
-19.1854
-19.1799
-19.1739
-19.1966
-19.1907
-19.1834
-19.1767
-19.1699
-19.1903
-19.1857
-19.1794
-19.1738
-19.1671
-19.1846
-19.1816
-19.1764
-19.1713
-19.1644
-20.0325