/*--------------------------------*- C++ -*----------------------------------*\
| =========                 |                                                 |
| \\      /  F ield         | OpenFOAM: The Open Source CFD Toolbox           |
|  \\    /   O peration     | Version:  2.3.1                                 |
|   \\  /    A nd           | Web:      www.OpenFOAM.org                      |
|    \\/     M anipulation  |                                                 |
\*---------------------------------------------------------------------------*/
FoamFile
{
    version     2.0;
    format      ascii;
    class       volScalarField;
    location    "600";
    object      p_rgh;
}
// * * * * * * * * * * * * * * * * * * * * * * * * * * * * * * * * * * * * * //

dimensions      [0 2 -2 0 0 0 0];

internalField   nonuniform List<scalar> 
6852
(
78.3495
78.36
78.3764
78.3958
78.3405
78.349
78.3645
78.3832
78.3284
78.3384
78.3599
78.3848
78.4108
78.3258
78.3496
78.3912
78.427
78.4586
78.324
78.3566
78.4042
78.4363
78.4651
78.3214
78.3588
78.4107
78.4441
78.4747
78.308
78.3465
78.4001
78.4341
78.4659
78.2861
78.3234
78.3774
78.4111
78.443
78.2585
78.2931
78.3459
78.3775
78.4077
78.2265
78.2561
78.3051
78.3327
78.3595
78.193
78.2162
78.2587
78.2814
78.3032
78.1583
78.1717
78.2
78.2165
78.2326
78.1281
78.1347
78.1511
78.1614
78.1714
78.1025
78.1042
78.1128
78.1181
78.1234
78.0814
78.08
78.0837
78.0859
78.0879
78.0642
78.0608
78.0615
78.0617
78.0618
78.0498
78.0455
78.0443
78.0432
78.0423
78.0375
78.0327
78.0303
78.0285
78.027
78.0267
78.0216
78.0184
78.0161
78.014
78.0172
78.0118
78.008
78.005
78.0024
78.0088
78.003
77.9985
77.9948
77.9917
78.0014
77.9951
77.9898
77.9853
77.9815
77.9948
77.988
77.9818
77.9764
77.9716
77.9892
77.9817
77.9746
77.968
77.962
77.9844
77.9762
77.968
77.9601
77.9527
77.9807
77.9716
77.9622
77.9529
77.9438
77.9781
77.9681
77.9574
77.9465
77.9356
77.9768
77.9658
77.9538
77.9412
77.9283
77.9768
77.965
77.9517
77.9376
77.9227
77.9783
77.9657
77.9513
77.9359
77.9191
77.9812
77.9681
77.953
77.9371
77.9193
77.9854
77.9723
77.9569
77.9409
77.9225
77.9907
77.978
77.9631
77.9482
77.9311
77.997
77.9851
77.9714
77.9582
77.9433
78.0039
77.9927
77.9796
77.9669
77.9524
78.0113
78.0007
77.9881
77.9756
77.9612
78.0201
78.0105
77.9991
77.988
77.9758
78.031
78.0232
78.0138
78.005
77.9971
78.0428
78.0378
78.0306
78.0236
78.0182
78.0551
78.0525
78.0473
78.0416
78.0367
78.0658
78.0645
78.0597
78.0533
78.0471
78.3404
78.347
78.3601
78.3775
78.3297
78.3322
78.3428
78.3588
78.3075
78.3096
78.3261
78.3491
78.2939
78.3086
78.3469
78.3817
78.4145
78.2908
78.3144
78.3617
78.3935
78.4238
78.2869
78.316
78.368
78.4004
78.4324
78.2723
78.3023
78.3561
78.3887
78.4215
78.2508
78.28
78.3349
78.3668
78.3995
78.2231
78.2499
78.3043
78.3341
78.365
78.1912
78.2132
78.264
78.2903
78.3176
78.1584
78.1739
78.2189
78.2414
78.2636
78.1264
78.1318
78.1584
78.1754
78.1917
78.1017
78.1012
78.1159
78.1266
78.1363
78.082
78.0777
78.0843
78.0898
78.0947
78.0665
78.0605
78.0622
78.0644
78.0664
78.0536
78.0473
78.0465
78.0468
78.047
78.0423
78.0363
78.0341
78.0333
78.0325
78.0321
78.0264
78.0236
78.0219
78.0205
78.0229
78.0172
78.0139
78.0116
78.0098
78.0144
78.0085
78.0047
78.0019
77.9995
78.0067
78.0005
77.996
77.9925
77.9896
77.9998
77.9931
77.9878
77.9835
77.9798
77.9936
77.9864
77.9801
77.9748
77.97
77.9882
77.9803
77.973
77.9664
77.9604
77.9837
77.975
77.9664
77.9584
77.9509
77.9802
77.9706
77.9607
77.9509
77.9416
77.9778
77.9672
77.9558
77.9443
77.9328
77.9765
77.9649
77.952
77.9386
77.9247
77.9764
77.964
77.9497
77.9346
77.9182
77.9777
77.9646
77.949
77.9323
77.9132
77.9804
77.9669
77.9505
77.9332
77.9123
77.9844
77.9707
77.9538
77.9362
77.9129
77.9897
77.9764
77.9599
77.9437
77.9217
77.9962
77.9834
77.9677
77.9532
77.9331
78.0037
77.9911
77.9757
77.9615
77.9417
78.0127
78.0005
77.9855
77.9717
77.9533
78.0225
78.0125
77.9993
77.9865
77.9708
78.0326
78.0253
78.0153
78.0057
77.9955
78.0436
78.0386
78.0309
78.0231
78.0151
78.0551
78.0522
78.0461
78.0391
78.0332
78.0689
78.0671
78.0611
78.0532
78.046
78.3275
78.3284
78.3362
78.3486
78.3147
78.3114
78.3168
78.3272
78.2862
78.2809
78.2918
78.3084
78.2647
78.2671
78.3027
78.3352
78.2597
78.2724
78.3213
78.3513
78.3825
78.2518
78.2708
78.3276
78.3584
78.392
78.2347
78.2545
78.3137
78.3438
78.3783
78.2115
78.231
78.2929
78.322
78.3564
78.1824
78.1997
78.2625
78.2894
78.3217
78.1496
78.1617
78.2211
78.2448
78.2728
78.117
78.122
78.1752
78.198
78.2202
78.0869
78.0824
78.1057
78.123
78.138
78.0673
78.0614
78.0729
78.0833
78.0904
78.0528
78.0463
78.051
78.0557
78.058
78.0422
78.0356
78.0377
78.0398
78.04
78.0341
78.0279
78.0287
78.0298
78.0293
78.0273
78.0212
78.0212
78.022
78.0214
78.0211
78.0149
78.0141
78.0148
78.0142
78.015
78.0088
78.0071
78.0074
78.0069
78.0089
78.0026
78
77.9996
77.999
78.0029
77.9962
77.9927
77.9913
77.9903
77.9971
77.9899
77.9852
77.9826
77.9807
77.9916
77.9836
77.9777
77.9735
77.9704
77.9867
77.9777
77.9703
77.9643
77.9594
77.9824
77.9723
77.9631
77.9552
77.9481
77.9789
77.9676
77.9565
77.9461
77.9363
77.9763
77.9638
77.9505
77.9374
77.9243
77.9748
77.961
77.9454
77.9293
77.9119
77.9745
77.9595
77.9416
77.9224
77.9
77.9755
77.9593
77.9391
77.9165
77.887
77.9781
77.9612
77.9391
77.9143
77.8787
77.9821
77.9648
77.9407
77.9133
77.866
77.988
77.9712
77.9473
77.9218
77.8743
77.9954
77.9797
77.9571
77.9344
77.89
78.0039
77.9893
77.9682
77.947
77.9053
78.0135
78.0006
77.9816
77.9626
77.9261
78.0247
78.0137
77.9974
77.9806
77.9506
78.0374
78.0295
78.0171
78.0044
77.9864
78.0508
78.046
78.0365
78.0256
78.0123
78.0644
78.0619
78.0547
78.0456
78.0362
78.0841
78.0828
78.0753
78.0643
78.0524
78.322
78.3197
78.3246
78.3327
78.3095
78.3031
78.3075
78.3146
78.2794
78.269
78.2794
78.2888
78.2494
78.2391
78.2768
78.301
78.2353
78.2344
78.2869
78.3125
78.2209
78.2267
78.2897
78.3181
78.3534
78.1991
78.2051
78.2716
78.2997
78.3363
78.1731
78.1789
78.2497
78.2775
78.3143
78.1414
78.1455
78.2184
78.2451
78.2797
78.1068
78.1053
78.1738
78.1995
78.229
78.0757
78.0635
78.1234
78.1539
78.1774
78.0506
78.0291
78.0416
78.0641
78.0768
78.0389
78.0227
78.0242
78.0351
78.038
78.0317
78.0191
78.0166
78.0198
78.0177
78.027
78.0174
78.0152
78.0163
78.0136
78.0232
78.0159
78.0146
78.0153
78.0127
78.0194
78.0134
78.0127
78.0135
78.0116
78.0151
78.0096
78.0092
78.0101
78.0091
78.0104
78.0048
78.0042
78.005
78.0046
78.0053
77.9992
77.998
77.9985
77.9981
78
77.9931
77.9908
77.9907
77.99
77.9945
77.9867
77.983
77.9818
77.9804
77.9892
77.9804
77.9748
77.972
77.9694
77.9842
77.9742
77.9665
77.9615
77.9572
77.9798
77.9684
77.9584
77.9506
77.9437
77.9761
77.9631
77.9506
77.9395
77.929
77.9733
77.9585
77.9431
77.9283
77.9132
77.9715
77.9549
77.9362
77.9169
77.8953
77.971
77.9527
77.9304
77.9063
77.8765
77.972
77.9519
77.9256
77.8956
77.8524
77.9748
77.9536
77.9241
77.8903
77.8349
77.9793
77.9574
77.9239
77.8842
77.801
77.9864
77.9657
77.933
77.8976
77.8158
77.9954
77.9768
77.9468
77.9161
77.8404
78.0056
77.9893
77.9623
77.9349
77.8648
78.0169
78.0034
77.9806
77.9576
77.8991
78.0292
78.0187
78.0005
77.9814
77.9347
78.0424
78.0359
78.0239
78.0122
77.9906
78.0563
78.0527
78.0439
78.0334
78.0168
78.0709
78.0698
78.0632
78.0541
78.0421
78.0946
78.0951
78.0882
78.0765
78.0614
78.3237
78.3212
78.3273
78.3357
78.3139
78.3074
78.3152
78.3232
78.2851
78.2726
78.2915
78.3014
78.2467
78.2272
78.2811
78.3014
78.2201
78.2102
78.2641
78.2869
78.1996
78.1962
78.2606
78.2875
78.1765
78.169
78.2373
78.2636
78.3027
78.1527
78.1411
78.214
78.2397
78.2793
78.1254
78.1089
78.1819
78.2062
78.2435
78.0967
78.0692
78.1327
78.1577
78.1897
78.0677
78.0293
78.0744
78.1079
78.1326
78.0397
77.9994
77.9864
78.0148
78.0234
78.0316
78.0058
77.994
78.0031
77.9965
78.0277
78.0089
77.9956
77.9941
77.9849
78.0253
78.0121
78.0029
78.0018
77.9971
78.0232
78.0137
78.0083
78.0077
78.0051
78.0205
78.013
78.01
78.0099
78.0084
78.0169
78.0103
78.0086
78.009
78.0083
78.0126
78.0062
78.0049
78.0055
78.0055
78.0078
78.001
77.9994
77.9998
78.0001
78.0025
77.9951
77.9925
77.9924
77.9926
77.997
77.9885
77.9847
77.9836
77.9831
77.9914
77.9817
77.9761
77.9735
77.9718
77.9859
77.9748
77.967
77.9623
77.9587
77.9809
77.9682
77.9576
77.9499
77.9437
77.9765
77.9619
77.9482
77.9367
77.9264
77.973
77.9563
77.9391
77.9228
77.9064
77.9705
77.9515
77.9299
77.9076
77.8819
77.9694
77.9479
77.9214
77.892
77.8532
77.9697
77.9455
77.9125
77.8731
77.8088
77.9722
77.9462
77.9075
77.8607
77.7696
77.9766
77.9489
77.9015
77.8393
77.6658
77.9846
77.9588
77.912
77.8559
77.6802
77.995
77.9724
77.9299
77.8808
77.7167
78.0066
77.9876
77.9507
77.9078
77.7586
78.0191
78.0045
77.9753
77.9413
77.8197
78.0318
78.0215
78
77.9743
77.8822
78.0448
78.0394
78.0279
78.0171
77.9892
78.0567
78.0542
78.0464
78.0367
78.0162
78.069
78.0689
78.064
78.0567
78.045
78.0848
78.0858
78.0803
78.0706
78.0567
78.3275
78.325
78.3332
78.3429
78.3174
78.3088
78.3202
78.3302
78.2899
78.2686
78.2963
78.3081
78.2455
78.1694
78.2819
78.3148
78.2174
78.1236
78.2276
78.2694
78.1977
78.1043
78.2242
78.2659
78.1761
78.0862
78.2061
78.2392
78.1541
78.0712
78.1916
78.2156
78.2564
78.1306
78.0526
78.1697
78.1829
78.2193
78.103
78.0322
78.1231
78.1251
78.1544
78.0724
78.0154
78.0379
78.0247
78.0377
78.0373
77.9756
77.8439
77.8318
77.8255
78.035
78.0007
77.9551
77.9499
77.9434
78.034
78.0088
77.9806
77.9683
77.9578
78.0332
78.015
77.9979
77.9896
77.9825
78.0318
78.0182
78.0076
78.002
77.9969
78.0291
78.0183
78.011
78.0074
78.0044
78.0253
78.0159
78.0105
78.0079
78.0061
78.0204
78.0118
78.0071
78.005
78.0038
78.0149
78.0064
78.0018
77.9997
77.9986
78.0088
78.0001
77.995
77.9925
77.9912
78.0023
77.9931
77.9871
77.9837
77.9817
77.9958
77.9856
77.9783
77.9736
77.9703
77.9893
77.9778
77.9688
77.9621
77.957
77.9832
77.9699
77.9585
77.9491
77.9411
77.9778
77.9622
77.9475
77.9344
77.9221
77.9732
77.9552
77.9365
77.9183
77.8997
77.9698
77.949
77.9253
77.9003
77.8711
77.968
77.9442
77.9147
77.8817
77.8373
77.9677
77.9407
77.9033
77.858
77.7805
77.97
77.941
77.897
77.8436
77.7343
77.9744
77.9431
77.8879
77.8142
77.5817
77.983
77.9542
77.9015
77.8382
77.6247
77.994
77.969
77.9217
77.8657
77.6671
78.0062
77.9854
77.945
77.8961
77.716
78.0189
78.0033
77.9721
77.934
77.7907
78.0313
78.0202
77.9975
77.9682
77.8502
78.0433
78.0374
78.0256
78.0116
77.9757
78.0536
78.05
78.0412
78.0294
78.0047
78.0636
78.0627
78.0574
78.0498
78.0379
78.074
78.0743
78.0691
78.0604
78.0479
78.3377
78.3225
78.2872
78.2751
78.2863
78.2751
78.2615
78.2487
78.241
78.2266
78.2208
78.2042
78.2346
78.1815
78.1636
78.1912
78.1796
78.1593
78.1849
78.3897
78.3313
78.3043
78.2509
78.3112
78.2606
78.2876
78.2359
78.2672
78.2141
78.2477
78.1929
78.202
78.1438
78.1797
78.245
78.1815
78.2129
0.672245
0.671181
0.668718
0.66385
0.659571
0.673107
0.672041
0.669329
0.663679
0.659604
0.673948
0.672702
0.669144
0.660599
0.658288
0.674676
0.673858
0.674527
0.673394
0.674402
0.67325
0.6733
0.671998
0.671693
0.670166
0.669576
0.667691
0.666669
0.664095
0.663356
0.659828
0.657445
0.648409
0.635764
0.641011
0.641591
0.656524
0.651331
0.644953
0.644222
0.643541
0.65536
0.652345
0.648018
0.646521
0.645366
0.653631
0.652088
0.649526
0.647941
0.646449
0.651501
0.650904
0.649321
0.647785
0.646183
0.649224
0.649234
0.648255
0.646884
0.645319
0.647042
0.647471
0.6469
0.64572
0.6443
0.645072
0.645825
0.645566
0.644602
0.643456
0.643305
0.644325
0.64432
0.64357
0.642768
0.641662
0.642888
0.643071
0.64245
0.641724
0.640037
0.641358
0.64158
0.640765
0.638723
0.638343
0.639655
0.639745
0.638264
0.633442
0.636521
0.637752
0.637549
0.635189
0.627941
0.634595
0.635779
0.635401
0.632658
0.625268
0.632507
0.633625
0.633059
0.629996
0.622887
0.630203
0.631215
0.630427
0.626969
0.620115
0.62764
0.628462
0.627403
0.623321
0.616519
0.624794
0.625275
0.623846
0.618625
0.611552
0.62166
0.621548
0.619492
0.611888
0.604019
0.61831
0.617307
0.614335
0.602287
0.593332
0.614798
0.612384
0.607652
0.584513
0.571748
0.611602
0.60809
0.602903
0.573034
0.567462
0.608826
0.604732
0.599639
0.568862
0.565128
0.606525
0.602363
0.597633
0.569675
0.566422
0.604674
0.600596
0.595717
0.572195
0.564268
0.603926
0.600378
0.595962
0.578508
0.569253
0.604337
0.60103
0.5961
0.5826
0.562158
0.606688
0.604172
0.600834
0.594468
0.587219
0.608753
0.606262
0.602826
0.597327
0.590498
0.610789
0.60814
0.604633
0.599599
0.594277
0.671403
0.670303
0.667882
0.663032
0.658885
0.671686
0.670468
0.66799
0.662347
0.658657
0.67199
0.670651
0.667527
0.65825
0.656956
0.672958
0.672938
0.673089
0.672691
0.672337
0.672567
0.672189
0.671445
0.670815
0.669862
0.668901
0.667809
0.666441
0.664974
0.662871
0.661951
0.659131
0.65581
0.646917
0.632139
0.639991
0.641426
0.655037
0.65133
0.645144
0.644667
0.643762
0.653715
0.651801
0.647642
0.646569
0.645503
0.652123
0.651319
0.649033
0.647796
0.646385
0.65033
0.650208
0.648881
0.64757
0.646022
0.648528
0.648833
0.648043
0.646779
0.64519
0.646855
0.64746
0.64699
0.645785
0.644228
0.645361
0.646205
0.645952
0.644817
0.64339
0.643989
0.645024
0.644914
0.643802
0.642487
0.642629
0.6438
0.643738
0.642471
0.640621
0.641166
0.642369
0.642162
0.640299
0.635889
0.639527
0.640659
0.640126
0.637175
0.628874
0.637671
0.638704
0.637824
0.634111
0.625303
0.635673
0.636677
0.635721
0.631987
0.624224
0.633477
0.634432
0.633439
0.629689
0.62265
0.631045
0.631923
0.630903
0.627073
0.620514
0.628344
0.629076
0.627988
0.623918
0.617609
0.625351
0.625809
0.624543
0.619859
0.613568
0.622057
0.62205
0.620411
0.614367
0.60791
0.61852
0.617796
0.615578
0.60682
0.600263
0.614868
0.61308
0.609911
0.596456
0.59002
0.611444
0.608741
0.605408
0.589333
0.589541
0.608328
0.605033
0.601778
0.585214
0.587744
0.60566
0.602227
0.599288
0.584333
0.5888
0.603392
0.599855
0.596331
0.58244
0.580568
0.602416
0.599276
0.596031
0.585693
0.583152
0.603014
0.599859
0.595499
0.584727
0.569941
0.606129
0.603584
0.600442
0.59473
0.589425
0.609647
0.60721
0.60417
0.599549
0.595103
0.614637
0.611818
0.608389
0.603782
0.599231
0.670419
0.66908
0.666509
0.661518
0.65752
0.670566
0.669076
0.666508
0.660687
0.657252
0.670613
0.668938
0.665654
0.656124
0.655499
0.67148
0.671368
0.671707
0.671209
0.670967
0.670745
0.670823
0.670558
0.66973
0.669161
0.668227
0.667294
0.666352
0.664998
0.663718
0.661683
0.661111
0.658721
0.654961
0.647404
0.632036
0.640762
0.654186
0.651855
0.645547
0.645522
0.644466
0.652587
0.6516
0.647411
0.646694
0.645624
0.651063
0.65087
0.648688
0.647605
0.646117
0.649509
0.649726
0.648443
0.64713
0.645414
0.648107
0.648577
0.647747
0.64631
0.644363
0.646881
0.647521
0.646882
0.645272
0.643038
0.645812
0.64658
0.645987
0.644116
0.641458
0.644793
0.645634
0.644956
0.642591
0.638979
0.6437
0.644551
0.643644
0.64041
0.634453
0.642409
0.643187
0.64187
0.63728
0.626968
0.64086
0.641531
0.639798
0.633779
0.618992
0.639044
0.639671
0.637758
0.631578
0.61855
0.637063
0.637808
0.636146
0.630765
0.620516
0.634826
0.635685
0.634292
0.629527
0.620857
0.632328
0.633266
0.632128
0.627829
0.620176
0.629547
0.630475
0.629516
0.625458
0.618497
0.626473
0.627234
0.626312
0.622104
0.615527
0.623121
0.62351
0.622459
0.617482
0.61099
0.619515
0.61924
0.617755
0.610658
0.604018
0.615783
0.61457
0.612368
0.602505
0.594617
0.612092
0.609883
0.607223
0.594469
0.590876
0.608569
0.605658
0.603017
0.589544
0.590801
0.605345
0.602255
0.600044
0.587952
0.592758
0.602204
0.59897
0.596092
0.58437
0.582175
0.600168
0.59752
0.595219
0.587315
0.586617
0.599712
0.59715
0.593891
0.585668
0.574627
0.602587
0.60037
0.597972
0.593599
0.58973
0.606969
0.604566
0.602081
0.598633
0.595865
0.613168
0.609997
0.606779
0.602947
0.599743
0.669326
0.66772
0.664938
0.659666
0.655724
0.669418
0.667593
0.664787
0.65862
0.655344
0.669336
0.667205
0.663487
0.653442
0.65341
0.670233
0.669829
0.67005
0.669812
0.669253
0.668865
0.66965
0.66905
0.668623
0.668005
0.667267
0.666637
0.66554
0.665013
0.663558
0.662648
0.66059
0.660491
0.658501
0.654247
0.647879
0.631455
0.640427
0.653435
0.65194
0.644896
0.645194
0.65177
0.651208
0.646716
0.646122
0.645014
0.650532
0.650545
0.648217
0.647023
0.64533
0.649341
0.649589
0.648105
0.64651
0.644369
0.648384
0.64878
0.647655
0.645703
0.642963
0.647568
0.648032
0.646938
0.644459
0.64082
0.646853
0.647339
0.646067
0.642827
0.637778
0.646112
0.646569
0.644952
0.640538
0.633009
0.64523
0.64562
0.643505
0.637412
0.625573
0.644095
0.644406
0.641735
0.633677
0.616058
0.642667
0.642977
0.640049
0.630734
0.608907
0.640947
0.641414
0.638771
0.630528
0.613441
0.639032
0.639835
0.637895
0.631415
0.618724
0.636808
0.637901
0.636569
0.631366
0.621121
0.634305
0.635618
0.634803
0.630571
0.622009
0.631521
0.632934
0.632507
0.628959
0.621692
0.628472
0.629805
0.629597
0.626363
0.620004
0.625197
0.626246
0.626122
0.622765
0.616944
0.621677
0.622112
0.621696
0.617034
0.611321
0.618022
0.617644
0.616874
0.610943
0.603764
0.614208
0.612814
0.611466
0.603061
0.598195
0.610308
0.608154
0.606752
0.597588
0.599023
0.606415
0.604067
0.603234
0.595259
0.603023
0.602141
0.599648
0.598242
0.590042
0.591061
0.598563
0.596811
0.596182
0.59153
0.59478
0.596293
0.594873
0.593599
0.588807
0.582978
0.597708
0.59661
0.595934
0.594033
0.592869
0.601633
0.600125
0.599162
0.597891
0.59772
0.607646
0.605147
0.603271
0.601389
0.600557
0.66824
0.666345
0.663271
0.657593
0.653639
0.668193
0.666002
0.662877
0.656267
0.653116
0.667947
0.665325
0.66105
0.650369
0.650998
0.668876
0.668128
0.66815
0.668357
0.667427
0.666776
0.668124
0.667185
0.666508
0.667288
0.666202
0.665248
0.665027
0.663799
0.663741
0.662292
0.661703
0.659798
0.660041
0.658752
0.653765
0.648582
0.631484
0.640106
0.653022
0.652085
0.644389
0.644731
0.651493
0.651069
0.646298
0.645565
0.650687
0.650666
0.648082
0.64652
0.644393
0.649888
0.649969
0.648133
0.645997
0.643096
0.649313
0.649448
0.647857
0.645095
0.641049
0.648787
0.648897
0.647175
0.643463
0.637602
0.648298
0.648351
0.646229
0.641134
0.632513
0.647724
0.647694
0.645022
0.638116
0.62537
0.646974
0.646886
0.643614
0.634517
0.616168
0.645964
0.645931
0.642209
0.630982
0.606142
0.644645
0.644826
0.641238
0.629415
0.601276
0.643009
0.64359
0.640874
0.631717
0.611928
0.641146
0.642241
0.640622
0.634096
0.620221
0.638937
0.640422
0.639623
0.634843
0.624259
0.636454
0.638204
0.638042
0.634525
0.626186
0.633714
0.635568
0.635855
0.633232
0.626605
0.630749
0.632501
0.633046
0.630966
0.625563
0.627593
0.629031
0.629712
0.627849
0.623296
0.624167
0.624941
0.625355
0.6227
0.618498
0.620544
0.620551
0.620952
0.617868
0.614009
0.616509
0.61546
0.615085
0.609436
0.606655
0.612057
0.610174
0.609419
0.602759
0.603321
0.607295
0.605199
0.604889
0.599011
0.606027
0.601773
0.599616
0.598956
0.59261
0.595069
0.596542
0.595341
0.595747
0.592858
0.597998
0.592259
0.591797
0.592133
0.589721
0.587562
0.591578
0.591707
0.592719
0.592942
0.594053
0.594247
0.593948
0.594643
0.595402
0.597326
0.598897
0.597645
0.597465
0.597605
0.59893
0.667198
0.664986
0.661544
0.65533
0.651296
0.666944
0.664353
0.660825
0.653645
0.650572
0.666498
0.66334
0.658384
0.646875
0.648212
0.667452
0.666317
0.666052
0.666889
0.665552
0.66456
0.666603
0.665313
0.664325
0.66578
0.664402
0.663225
0.664782
0.663442
0.662139
0.662558
0.661133
0.660838
0.65911
0.659694
0.659227
0.653528
0.649261
0.632007
0.639759
0.653005
0.652275
0.644125
0.644203
0.651752
0.651202
0.6462
0.645081
0.651355
0.65111
0.648239
0.646166
0.650822
0.650609
0.648353
0.64548
0.641509
0.650453
0.650162
0.647959
0.644174
0.638375
0.650028
0.649595
0.647118
0.642015
0.633444
0.649599
0.649097
0.646154
0.639251
0.626668
0.649094
0.648586
0.645121
0.636042
0.618022
0.648429
0.648039
0.644176
0.632862
0.608605
0.647514
0.647399
0.643481
0.630594
0.600455
0.646285
0.646598
0.643214
0.630606
0.598635
0.644704
0.645544
0.643409
0.634833
0.614923
0.642883
0.644299
0.643451
0.638022
0.625206
0.640704
0.642503
0.642496
0.638927
0.629747
0.638261
0.640274
0.640861
0.638562
0.631787
0.635575
0.637611
0.638579
0.63716
0.632174
0.63267
0.634522
0.635698
0.63488
0.631199
0.629544
0.631013
0.632301
0.631864
0.629301
0.626061
0.626848
0.627962
0.627161
0.625453
0.622224
0.622362
0.623754
0.622801
0.623783
0.617742
0.617012
0.61779
0.614894
0.616422
0.612518
0.611062
0.61137
0.607369
0.609833
0.606764
0.605145
0.605704
0.602154
0.607787
0.600068
0.598458
0.59879
0.594335
0.597081
0.593434
0.592865
0.594391
0.593144
0.598691
0.587477
0.587889
0.589684
0.589432
0.589743
0.584578
0.58596
0.588649
0.590943
0.593898
0.58595
0.586924
0.589271
0.591991
0.595689
0.589059
0.589204
0.590754
0.592841
0.59609
0.666231
0.663678
0.659788
0.652911
0.648734
0.665696
0.662674
0.658663
0.650786
0.647755
0.665001
0.661262
0.655515
0.642988
0.645094
0.665967
0.664418
0.663788
0.665357
0.663614
0.662271
0.66511
0.663459
0.662111
0.66431
0.66267
0.661226
0.663375
0.661885
0.660476
0.662469
0.661408
0.659987
0.660015
0.658443
0.659504
0.659868
0.653658
0.650081
0.633179
0.63961
0.653448
0.652724
0.644334
0.643874
0.652449
0.651653
0.646476
0.644738
0.652287
0.651659
0.64831
0.64558
0.651641
0.650858
0.64812
0.644577
0.651186
0.650306
0.647563
0.642906
0.635388
0.650705
0.649691
0.646627
0.640412
0.629288
0.65026
0.649227
0.645749
0.637569
0.621526
0.649767
0.648863
0.645052
0.634721
0.612664
0.64916
0.648569
0.644691
0.632501
0.604254
0.648326
0.648222
0.644722
0.631801
0.59895
0.647168
0.647644
0.64506
0.633543
0.601443
0.645615
0.646632
0.645327
0.638152
0.62029
0.643797
0.645322
0.645227
0.641336
0.631317
0.641625
0.643426
0.644046
0.64194
0.63535
0.639183
0.64107
0.64218
0.641182
0.636677
0.636447
0.638252
0.639642
0.639376
0.636399
0.633421
0.634979
0.636509
0.636804
0.634993
0.630038
0.631192
0.632801
0.633536
0.632864
0.626151
0.626729
0.628355
0.629187
0.630157
0.621712
0.621866
0.623966
0.624902
0.628993
0.616484
0.616112
0.617864
0.617751
0.622626
0.610332
0.609463
0.610695
0.609885
0.61448
0.60364
0.602742
0.604076
0.603621
0.610149
0.596018
0.59521
0.596367
0.594394
0.597533
0.588628
0.588754
0.591117
0.591829
0.597271
0.581616
0.582743
0.585692
0.587457
0.589434
0.57736
0.579387
0.583302
0.587506
0.591834
0.577404
0.5793
0.582936
0.587332
0.592439
0.579366
0.580559
0.583443
0.587092
0.591888
0.66537
0.662442
0.658022
0.650345
0.645958
0.664476
0.66098
0.656402
0.647692
0.644664
0.663474
0.659104
0.652447
0.638692
0.641634
0.664432
0.662448
0.661416
0.663768
0.661614
0.659897
0.663565
0.661582
0.65991
0.662887
0.661014
0.65928
0.662039
0.660416
0.658814
0.661303
0.66028
0.658885
0.659653
0.659174
0.657838
0.659476
0.66069
0.6541
0.651041
0.634663
0.639399
0.654174
0.653341
0.644763
0.643445
0.653115
0.651922
0.646339
0.643901
0.65258
0.651375
0.647636
0.644318
0.651696
0.650292
0.647063
0.642932
0.651026
0.649491
0.646266
0.640958
0.650371
0.648748
0.645267
0.638376
0.625325
0.64982
0.648269
0.644529
0.635757
0.617354
0.649282
0.647997
0.644178
0.633564
0.609167
0.648682
0.647863
0.644309
0.632449
0.602562
0.64788
0.647666
0.644813
0.633091
0.600389
0.646751
0.647155
0.645395
0.635888
0.606816
0.645201
0.646084
0.645485
0.640129
0.625247
0.64336
0.644648
0.64508
0.642662
0.635821
0.641128
0.64259
0.643582
0.642686
0.639068
0.638555
0.640019
0.641325
0.641367
0.639485
0.635576
0.63687
0.638357
0.639017
0.638298
0.632161
0.633175
0.634815
0.635995
0.636258
0.628174
0.628824
0.630587
0.632264
0.633594
0.623539
0.623828
0.62585
0.628048
0.631504
0.618202
0.618328
0.620855
0.623557
0.628697
0.612083
0.612005
0.614296
0.616814
0.62384
0.605062
0.604719
0.606462
0.60817
0.614293
0.597713
0.597518
0.599321
0.601268
0.608913
0.589613
0.589605
0.591399
0.59141
0.595242
0.582025
0.582939
0.585911
0.588052
0.593646
0.574557
0.576212
0.580183
0.583609
0.586955
0.570586
0.572539
0.577151
0.582799
0.588221
0.569254
0.571584
0.575995
0.581628
0.587869
0.570317
0.572117
0.575859
0.580609
0.586639
0.664637
0.661294
0.656253
0.647633
0.642966
0.663296
0.659276
0.654042
0.644355
0.64129
0.66192
0.656859
0.649169
0.633963
0.637815
0.662845
0.660403
0.658945
0.662108
0.659538
0.657426
0.661961
0.659674
0.657732
0.661395
0.659325
0.657395
0.660734
0.659038
0.657177
0.660247
0.6593
0.657845
0.658749
0.658325
0.657217
0.658632
0.659563
0.661643
0.654624
0.651938
0.635824
0.638641
0.654566
0.653627
0.64464
0.642204
0.652784
0.651026
0.645108
0.642021
0.651839
0.649999
0.645791
0.64194
0.650512
0.648415
0.644726
0.640145
0.649497
0.647272
0.643637
0.63793
0.648568
0.646301
0.642519
0.635331
0.647828
0.645711
0.641842
0.63301
0.613454
0.647174
0.645416
0.641691
0.631435
0.606291
0.646515
0.6453
0.642077
0.631182
0.601586
0.645682
0.645105
0.642756
0.632661
0.602054
0.644524
0.64454
0.643307
0.63581
0.610813
0.642927
0.643354
0.643134
0.639409
0.627945
0.640986
0.641733
0.642373
0.641183
0.637034
0.638581
0.639436
0.640525
0.640605
0.639331
0.635713
0.636535
0.637882
0.638719
0.638869
0.632281
0.63294
0.634426
0.635847
0.636892
0.628243
0.628696
0.63038
0.632399
0.63426
0.623431
0.623633
0.625521
0.62812
0.631037
0.617903
0.617974
0.620373
0.6239
0.62923
0.61152
0.611596
0.614352
0.618174
0.622885
0.604582
0.604784
0.607582
0.611777
0.620041
0.596905
0.59704
0.599323
0.602533
0.609393
0.589268
0.589657
0.592114
0.595554
0.603898
0.581227
0.581715
0.584355
0.585785
0.58987
0.573835
0.575023
0.579082
0.582309
0.588081
0.56693
0.568683
0.573474
0.578228
0.582632
0.563061
0.565233
0.570298
0.576962
0.58326
0.5624
0.564386
0.568919
0.575181
0.582272
0.562013
0.56407
0.568341
0.573722
0.580701
0.664053
0.660241
0.654483
0.644769
0.639747
0.662167
0.657558
0.65157
0.640756
0.637613
0.660344
0.654518
0.645657
0.628763
0.633609
0.661201
0.658273
0.656366
0.660362
0.657365
0.654857
0.660265
0.657678
0.655488
0.659801
0.657547
0.655464
0.659333
0.657596
0.655636
0.659155
0.658329
0.656899
0.657982
0.657607
0.656441
0.658596
0.659768
0.662601
0.655639
0.654435
0.652175
0.635841
0.636625
0.653768
0.652735
0.643119
0.639538
0.651182
0.648717
0.642368
0.638628
0.649586
0.647023
0.642297
0.637965
0.647647
0.644781
0.640628
0.635705
0.646138
0.643152
0.639129
0.633192
0.644819
0.641829
0.637774
0.630524
0.643798
0.641006
0.637006
0.628382
0.642956
0.640562
0.636855
0.627184
0.602349
0.642177
0.640344
0.637264
0.627448
0.599215
0.641264
0.640053
0.637907
0.629333
0.60154
0.640039
0.63938
0.638312
0.632453
0.611371
0.638363
0.638075
0.637918
0.635492
0.627048
0.636277
0.636269
0.636866
0.636661
0.634762
0.633626
0.633717
0.634716
0.635637
0.636126
0.630369
0.630447
0.631699
0.633243
0.634919
0.626376
0.626356
0.627813
0.629885
0.632246
0.621608
0.621518
0.623274
0.62605
0.629052
0.615876
0.615693
0.617749
0.621235
0.62515
0.609399
0.609351
0.612117
0.616928
0.623499
0.601954
0.602065
0.605069
0.609649
0.613352
0.594232
0.594696
0.598217
0.603477
0.611997
0.586017
0.586437
0.589633
0.593768
0.600687
0.578352
0.57907
0.582543
0.58699
0.595655
0.570852
0.571735
0.575346
0.577818
0.581704
0.564311
0.565709
0.5706
0.574583
0.580672
0.558656
0.5604
0.565609
0.571299
0.576633
0.554962
0.557167
0.562683
0.570074
0.577144
0.555664
0.557048
0.561671
0.568166
0.575913
0.553739
0.55593
0.560668
0.566582
0.574441
0.663625
0.659284
0.652703
0.641738
0.636283
0.661088
0.655813
0.648966
0.636868
0.633602
0.658739
0.652059
0.641877
0.623044
0.628977
0.65949
0.656038
0.653659
0.658513
0.655069
0.652157
0.658444
0.655544
0.653114
0.658061
0.655601
0.653372
0.657777
0.655945
0.653975
0.657884
0.657081
0.655902
0.656968
0.656713
0.655548
0.658115
0.659756
0.663395
0.654671
0.652985
0.651045
0.633945
0.632753
0.653403
0.651571
0.650065
0.639576
0.63493
0.647886
0.644678
0.63763
0.633228
0.645381
0.641985
0.636649
0.631876
0.64263
0.638901
0.634249
0.629053
0.64047
0.63663
0.632209
0.626137
0.638653
0.634828
0.630475
0.623249
0.637276
0.633668
0.629459
0.621071
0.6362
0.632995
0.629157
0.620027
0.635281
0.632624
0.629472
0.620505
0.593892
0.634294
0.632233
0.630039
0.622542
0.597368
0.633026
0.63149
0.630347
0.625591
0.607648
0.631301
0.630134
0.629858
0.628341
0.622243
0.629097
0.628218
0.628663
0.629176
0.629002
0.62622
0.625478
0.626332
0.627874
0.629692
0.622584
0.621901
0.623054
0.625187
0.627955
0.618034
0.617369
0.618808
0.621462
0.624757
0.612543
0.611978
0.613818
0.617267
0.621114
0.605919
0.605468
0.607678
0.611886
0.616626
0.598533
0.598515
0.601651
0.607411
0.614993
0.590059
0.590309
0.593644
0.598839
0.602276
0.58156
0.582244
0.586283
0.592556
0.601023
0.572997
0.573725
0.577265
0.582453
0.589419
0.565377
0.566544
0.570338
0.575929
0.585099
0.5583
0.559846
0.564046
0.567695
0.57214
0.552429
0.5548
0.560267
0.564989
0.571852
0.547841
0.550386
0.556252
0.562771
0.569253
0.545289
0.547866
0.553912
0.561995
0.570047
0.546692
0.548316
0.553441
0.560451
0.569058
0.545259
0.547477
0.552753
0.55939
0.568147
0.663342
0.65841
0.650902
0.638525
0.632556
0.660045
0.65402
0.646202
0.632664
0.629226
0.657087
0.649456
0.637791
0.616759
0.623882
0.657693
0.653672
0.650796
0.656536
0.652616
0.649291
0.656458
0.653225
0.65055
0.656112
0.653418
0.651051
0.655958
0.653991
0.652039
0.656249
0.655434
0.654434
0.655452
0.655263
0.654392
0.656907
0.659012
0.663495
0.652502
0.650079
0.648178
0.629478
0.626511
0.650332
0.647537
0.645382
0.633656
0.627942
0.646328
0.642422
0.638322
0.630381
0.625331
0.638741
0.634384
0.628359
0.623179
0.634983
0.630277
0.625098
0.619672
0.63204
0.627233
0.622394
0.616209
0.629646
0.62487
0.620177
0.612953
0.627884
0.623329
0.618839
0.610592
0.626587
0.622426
0.618359
0.60956
0.62558
0.621947
0.618594
0.610155
0.624601
0.621547
0.619157
0.612319
0.589131
0.623396
0.620867
0.619514
0.615436
0.599761
0.621741
0.619611
0.619119
0.618214
0.613831
0.619545
0.617753
0.617984
0.61902
0.620153
0.616564
0.614985
0.615644
0.617646
0.620495
0.612675
0.611264
0.612271
0.614835
0.618473
0.6077
0.606456
0.607833
0.610904
0.614956
0.601624
0.60068
0.602551
0.606513
0.611042
0.594266
0.59369
0.596044
0.600775
0.606184
0.586085
0.586197
0.589723
0.596251
0.604533
0.576677
0.577136
0.580751
0.586648
0.590344
0.56755
0.568587
0.572906
0.580134
0.588413
0.558509
0.560014
0.563791
0.569979
0.577164
0.550642
0.553018
0.557077
0.563705
0.573643
0.543632
0.546702
0.551538
0.556453
0.56233
0.538326
0.542085
0.548443
0.554172
0.561818
0.534727
0.538595
0.545425
0.553063
0.561164
0.533668
0.537218
0.544108
0.553076
0.562577
0.536404
0.538632
0.544522
0.552243
0.562144
0.53751