/*--------------------------------*- C++ -*----------------------------------*\
| =========                 |                                                 |
| \\      /  F ield         | OpenFOAM: The Open Source CFD Toolbox           |
|  \\    /   O peration     | Version:  2.3.1                                 |
|   \\  /    A nd           | Web:      www.OpenFOAM.org                      |
|    \\/     M anipulation  |                                                 |
\*---------------------------------------------------------------------------*/
FoamFile
{
    version     2.0;
    format      ascii;
    class       surfaceScalarField;
    location    "600";
    object      phi;
}
// * * * * * * * * * * * * * * * * * * * * * * * * * * * * * * * * * * * * * //

dimensions      [0 3 -1 0 0 0 0];

internalField   nonuniform List<scalar> 
18378
(
-0.00161003
-0.000382919
0.000753428
-0.00187082
-0.000613677
0.000874471
-0.00197845
-0.000847029
0.000954655
-0.00102897
0.00100235
-0.00318128
-0.000858008
0.000817565
-0.00330739
-0.00127635
0.000788789
-0.00321196
-0.00166124
0.000718789
-0.00192445
0.000651938
-0.00372812
-0.000985108
0.000441764
-0.00377145
-0.00142836
0.000195342
-0.00353548
-0.00181762
-7.95917e-05
-0.00315848
-0.0020395
-0.000261957
-0.00216867
-0.00420852
-0.000436354
-0.000277423
-0.00411601
-0.000721264
-0.000799608
-0.00365642
-0.000921343
-0.00135587
-0.00312943
-0.000981436
-0.00158506
-0.00100949
-0.001685
-0.00438173
0.00045174
-0.000721604
-0.00415596
0.000298383
-0.00124541
-0.00357026
0.000191332
-0.00169838
-0.0030468
0.000152654
-0.00165755
0.00011616
-0.00161935
-0.00453063
0.00137381
-0.000794562
-0.00425709
0.00131418
-0.00128933
-0.00362251
0.00126083
-0.00170408
-0.00307369
0.00124301
-0.00163918
0.00122248
-0.00162725
-0.00456667
0.00218684
-0.000701556
-0.00428096
0.00218934
-0.00116087
-0.00363999
0.00217961
-0.00155973
-0.00308144
0.00220121
-0.00151676
0.00221798
-0.00152458
-0.00453314
0.00291324
-0.000608936
-0.00425527
0.00297753
-0.00106607
-0.00361555
0.00301877
-0.00147889
-0.00305128
0.00309157
-0.00145463
0.00315673
-0.00147108
-0.00443274
0.00356328
-0.000516624
-0.00417039
0.0037034
-0.000988229
-0.0035345
0.00381088
-0.001428
-0.00297123
0.00393783
-0.00140953
0.00405445
-0.00142226
-0.00425252
0.00412845
-0.000414011
-0.00401291
0.00436271
-0.000898914
-0.00339374
0.00455652
-0.00136481
-0.00284295
0.0047324
-0.00134536
0.00489605
-0.00134533
-0.00399486
0.00458682
-0.000292206
-0.00378539
0.00493143
-0.000778191
-0.00320009
0.00524397
-0.00127275
-0.00267065
0.00546847
-0.00126551
0.00566983
-0.00124655
-0.00362614
0.00486752
-0.000116611
-0.00345074
0.00528006
-0.000524029
-0.00295417
0.0056631
-0.000915692
-0.00247545
0.00592743
-0.000937686
0.00615737
-0.00091758
-0.00321076
0.00497629
5.11012e-05
-0.00307185
0.00541054
-0.000269397
-0.0026671
0.00582067
-0.000562325
-0.00225032
0.00610725
-0.000596602
0.00634878
-0.000571678
-0.00278554
0.00494313
0.000188084
-0.00268315
0.00536212
-5.39648e-05
-0.00236036
0.00576331
-0.00026543
-0.00200724
0.00605197
-0.00029784
0.00628869
-0.000268105
-0.00237489
0.00480766
0.000283973
-0.00230621
0.00519087
0.000102569
-0.0020524
0.0055591
-4.95949e-05
-0.00175814
0.00583403
-7.63213e-05
0.00605655
-4.61918e-05
-0.00199589
0.00460934
0.000340377
-0.00195505
0.0049482
0.000201829
-0.00175882
0.00527452
8.83549e-05
-0.00151748
0.00552646
6.62314e-05
0.00573059
9.41021e-05
-0.00165655
0.0043803
0.00036551
-0.00163871
0.00467416
0.000256202
-0.00149045
0.00495871
0.000167545
-0.00129618
0.00518487
0.000147321
0.00536862
0.000171671
-0.00135762
0.0041439
0.000368063
-0.0013594
0.00439682
0.000279121
-0.00125079
0.00464373
0.000206371
-0.00109707
0.00484524
0.000185903
0.00500949
0.000205162
-0.00109547
0.00391508
0.000356145
-0.001114
0.00413352
0.000281836
-0.00103824
0.0043494
0.000218573
-0.000919312
0.00452987
0.000196445
0.00467754
0.000209677
-0.000864011
0.00370176
0.00033621
-0.000896529
0.00389322
0.000272817
-0.00084841
0.00408554
0.000215735
-0.000759676
0.00425025
0.00019089
0.00438572
0.000197763
-0.000656061
0.00350665
0.000312907
-0.00069988
0.00367877
0.000258263
-0.000675209
0.00385519
0.00020568
-0.000613231
0.00401022
0.000178058
0.00413888
0.000178552
-0.000464094
0.00332858
0.000289401
-0.000516444
0.00348865
0.000242476
-0.000511653
0.0036565
0.0001939
-0.000473821
0.00380822
0.000164166
0.00393611
0.000158833
-0.000280694
0.00316373
0.000267733
-0.000338601
0.00331815
0.000228408
-0.000350394
0.00348414
0.00018415
-0.000334563
0.00363881
0.00015358
0.00377217
0.000143697
-9.89854e-05
0.00300656
0.000249154
-0.0001589
0.00316015
0.000217915
-0.000183945
0.00333016
0.000179031
-0.000188155
0.00349364
0.00014938
0.00363854
0.000137075
8.7916e-05
0.00284991
0.000233345
2.96075e-05
0.00300678
0.000211672
-5.40362e-06
0.00318498
0.000180191
-2.73859e-05
0.00336178
0.000153841
0.00352371
0.000142041
0.000284187
0.00268609
0.000220487
0.000232588
0.00284876
0.000209627
0.000191939
0.00303735
0.00018828
0.000154938
0.00323008
0.000168697
0.00341323
0.000161328
0.000492963
0.00250617
0.000210822
0.000454363
0.00267526
0.000212093
0.000413446
0.00287441
0.000203852
0.000364925
0.00308344
0.000195167
0.00328985
0.000197645
0.000715212
0.00230065
0.000204777
0.000696856
0.00247452
0.000219104
0.000662524
0.00268152
0.000227228
0.000607844
0.00290362
0.000234502
0.00313147
0.000254746
0.000949316
0.00206051
0.000202434
0.000958635
0.00223475
0.000230448
0.000938645
0.00244337
0.000258136
0.000884515
0.00267092
0.000286825
0.00291334
0.000334644
0.00119151
0.00177839
0.000202888
0.00123592
0.00194453
0.000245811
0.00123939
0.00214284
0.000297057
0.00119554
0.0023604
0.000354367
0.00259933
0.000446017
0.00143197
0.00145137
0.000203841
0.00151635
0.0015978
0.000262345
0.00154967
0.00177003
0.000339497
0.00152317
0.00195809
0.000428814
0.0021697
0.000575643
0.00165855
0.00108163
0.000202033
0.00178671
0.00119149
0.000278153
0.00185753
0.00131365
0.000385566
0.0018611
0.00143981
0.000514711
0.00157361
0.00074531
0.00185006
0.000686126
0.000187735
0.00201878
0.000740743
0.000282029
0.00212371
0.000792299
0.000416419
0.00215217
0.000835331
0.000576022
0.000863561
0.000872534
0.0019777
0.000297878
0.000149743
0.00217833
0.000276233
0.000263884
0.00231314
0.000233884
0.000423604
0.00237802
0.000161696
0.000608751
2.8405e-05
0.000946708
0.00202723
-5.39492e-05
8.35305e-05
0.00226229
-0.000167567
0.000208737
0.00243494
-0.000318484
0.000379713
0.00254039
-0.00051706
0.000573311
-0.000807018
0.000910581
0.00194589
-0.00032091
-1.56031e-05
0.00219068
-0.000509427
9.70696e-05
0.00236667
-0.000749979
0.000255501
0.00245363
-0.00103461
0.000430597
-0.00140547
0.000717384
0.00176496
-0.000498909
-0.000124178
0.00201326
-0.000709133
-4.85947e-05
0.00217568
-0.000987767
7.53668e-05
0.00222754
-0.00131128
0.000224818
-0.00170036
0.000455001
0.0015094
-0.000599781
-0.000237682
0.0017898
-0.000783459
-0.000206069
0.00195907
-0.00102488
-0.000132155
0.00198536
-0.00130309
-3.44872e-05
-0.0016127
9.21347e-05
0.00122006
-0.000592929
-0.000386911
0.00155161
-0.000728719
-0.000386285
0.00176966
-0.000893864
-0.000349066
0.00182472
-0.00106906
-0.000289098
-0.00124995
-0.000202751
0.000910538
-0.00042253
-0.000586626
0.00127718
-0.000491468
-0.000603888
0.00152776
-0.000562843
-0.000581602
0.00161686
-0.000623538
-0.00053462
-0.000673736
-0.000455453
0.000513468
-0.000792561
0.00082617
-0.00080417
0.00102777
-0.000764445
0.00108919
-0.000684958
-0.00057516
-0.00240017
-0.000155699
0.00137716
-0.0026991
-0.000386497
0.0015599
-0.00278989
-0.000640051
0.00168549
-0.000856095
0.00177052
-0.00370638
-0.000413192
0.0013732
-0.00379516
-0.000821035
0.00131211
-0.00366136
-0.0012204
0.00116534
-0.0015295
0.0010325
-0.00399484
-0.000304461
0.000590418
-0.00399593
-0.000777847
0.000153242
-0.00371304
-0.00123908
-0.00034379
-0.00153974
-0.000664375
-0.00404628
0.000298653
-0.000722335
-0.00390727
-5.76427e-05
-0.00165882
-0.00339121
-0.000384075
-0.00272693
-0.0028624
-0.000533693
-0.00311991
-0.000625751
-0.0041012
0.00102284
-0.00133608
-0.0038746
0.000760271
-0.00228993
-0.00325752
0.000542252
-0.00324179
-0.00275807
0.000483282
-0.00317397
0.000431977
-0.00312628
-0.00427095
0.00179747
-0.0014826
-0.00400599
0.00159224
-0.00238627
-0.00335161
0.00143205
-0.00324825
-0.00282584
0.00142169
-0.00310336
0.00140199
-0.00307606
-0.00435201
0.00256583
-0.00141056
-0.00406538
0.00239645
-0.00225171
-0.00339605
0.00226832
-0.00306533
-0.00285429
0.00230147
-0.0029383
0.00232331
-0.00293731
-0.00437556
0.00330158
-0.00130138
-0.00407783
0.00316342
-0.00213076
-0.00339491
0.00306408
-0.00295757
-0.00284054
0.00314456
-0.00285209
0.0032171
-0.00286138
-0.0043301
0.00400632
-0.00118645
-0.00402826
0.00391399
-0.00204063
-0.0033344
0.00385584
-0.00291362
-0.00277527
0.00398213
-0.00280623
0.00410999
-0.0028045
-0.00419818
0.00466705
-0.00104916
-0.00389983
0.00464695
-0.00193023
-0.0032128
0.00466234
-0.00285834
-0.00266345
0.004828
-0.00274058
0.00501052
-0.00271439
-0.00398788
0.00526116
-0.00087358
-0.00370225
0.00534225
-0.00175912
-0.00304354
0.00549785
-0.00276696
-0.00251253
0.00570815
-0.00267667
0.00593774
-0.00261359
-0.0036766
0.00571818
-0.000590995
-0.00340163
0.00586036
-0.00131712
-0.00285346
0.00608945
-0.00205546
-0.00237703
0.00634532
-0.00205129
0.0066156
-0.00200122
-0.00336434
0.00604931
-0.000310242
-0.00310771
0.00622856
-0.000894215
-0.00265167
0.00648535
-0.00141427
-0.00222992
0.00677086
-0.00144389
0.00706385
-0.00138858
-0.00307312
0.00627271
-6.36683e-05
-0.00283845
0.00647917
-0.000539249
-0.00245519
0.00674303
-0.000906369
-0.00208447
0.00703714
-0.000934845
0.00733515
-0.000869262
-0.0028054
0.00641049
0.000132512
-0.00260189
0.0066405
-0.000262264
-0.00227649
0.00690738
-0.000539344
-0.00195026
0.00719775
-0.000563155
0.00748833
-0.000494277
-0.00256136
0.00648381
0.000275957
-0.00239253
0.00673335
-5.98527e-05
-0.00211398
0.00700207
-0.000284896
-0.00182515
0.00728331
-0.000308153
0.00755836
-0.000241163
-0.00233371
0.00650869
0.000372013
-0.0021993
0.00677253
8.26087e-05
-0.00196191
0.00704487
-0.00011264
-0.00170541
0.00731456
-0.000140433
0.00757086
-7.99845e-05
-0.00211858
0.00649785
0.000429958
-0.00201763
0.00677252
0.000178176
-0.00181665
0.00704848
1.78318e-06
-0.0015885
0.00730765
-3.53387e-05
0.00754441
1.46424e-05
-0.00191366
0.00646124
0.000460288
-0.0018419
0.00674459
0.000238006
-0.00167303
0.00702327
7.49091e-05
-0.00147134
0.00727526
2.71493e-05
0.00749527
6.32373e-05
-0.00171653
0.00640618
0.000471959
-0.00167025
0.00669727
0.000273866
-0.0015307
0.00697982
0.000119641
-0.00135431
0.00722822
6.15364e-05
0.00743713
8.21413e-05
-0.00152458
0.00633741
0.000472271
-0.00150061
0.00663629
0.000295276
-0.00138832
0.00692506
0.000148147
-0.00123688
0.00717451
8.03291e-05
0.0073786
8.55323e-05
-0.00133475
0.00625724
0.000466932
-0.00133014
0.00656457
0.000309572
-0.00124327
0.00686241
0.000169694
-0.00111657
0.00711805
9.39194e-05
0.00732388
8.48728e-05
-0.00114343
0.00616565
0.000460172
-0.00115511
0.00648225
0.000322418
-0.0010918
0.00679207
0.000191177
-0.000989645
0.00705906
0.000110423
0.00727309
8.95604e-05
-0.000946587
0.00606079
0.000454871
-0.000971137
0.00638705
0.000337667
-0.000929232
0.00671125
0.000217941
-0.000851295
0.00699413
0.000136373
0.0072224
0.000107651
-0.000739947
0.00593874
0.000452539
-0.000773535
0.00627435
0.000357952
-0.000750315
0.0066144
0.000253826
-0.000695721
0.00691663
0.000176748
0.00716429
0.000146018
-0.000519008
0.00579425
0.000454019
-0.000557165
0.00613732
0.000384821
-0.00054908
0.00649295
0.000301645
-0.00051616
0.00681609
0.000236313
0.00708673
0.000211697
-0.000279789
0.00562088
0.00045964
-0.000316959
0.00596754
0.000419039
-0.000319298
0.00633578
0.000363358
-0.000305173
0.00667828
0.000318855
0.00697266
0.000312119
-1.96487e-05
0.00541319
0.000468416
-4.87006e-05
0.00575536
0.000460334
-5.48095e-05
0.00612872
0.000440398
-5.43825e-05
0.00648373
0.000428622
0.00679708
0.000457447
0.000262169
0.00516695
0.00047797
0.0002496
0.00549236
0.000506019
0.000247802
0.00585756
0.000531098
0.0002413
0.00621133
0.000565729
0.00653079
0.000652707
0.000564329
0.00487773
0.000486783
0.000578129
0.00517059
0.000553778
0.000591953
0.00550657
0.000634218
0.000590458
0.00583458
0.000732611
0.00613169
0.000914643
0.000879495
0.00454395
0.000490738
0.000928366
0.00478731
0.000596756
0.000967331
0.00506859
0.000738509
0.00097984
0.00534062
0.000910269
0.0055778
0.00121523
0.00119891
0.00416613
0.000485263
0.00129255
0.00434235
0.000629474
0.00137129
0.00453578
0.000839634
0.0014189
0.00470623
0.00110149
0.00480643
0.00159615
0.00150544
0.00375092
0.000460031
0.00164486
0.00385169
0.000633261
0.00176362
0.00393569
0.000897751
0.00184175
0.00397854
0.00122558
0.00390482
0.00186134
0.00178394
0.00330319
0.000407577
0.00196631
0.00333575
0.000597468
0.00212325
0.00330742
0.000894938
0.00223537
0.00321292
0.00126224
0.0029482
0.00197095
0.00202545
0.00281744
0.000325105
0.00225446
0.00280018
0.000515292
0.00245509
0.00266782
0.000818675
0.00261412
0.00243059
0.00119662
0.00196308
0.00191325
0.00219803
0.00228036
0.0002103
0.00247964
0.00223428
0.000381374
0.00271824
0.00202667
0.000658045
0.0029058
0.0016653
0.00100832
0.0010181
0.00165462
0.00224265
0.001725
5.8757e-05
0.00258559
0.00164294
0.000199796
0.00286919
0.00138804
0.000430401
0.00307474
0.00095917
0.0007254
0.000221933
0.00124829
0.00212636
0.00120879
-0.000131653
0.0025084
0.00109632
-4.14866e-05
0.00282162
0.000826254
0.00011641
0.00302151
0.000408172
0.000316626
-0.000230694
0.000601098
0.00187374
0.000732824
-0.000360066
0.00229239
0.000622171
-0.00033078
0.00262917
0.000390002
-0.000249599
0.00282625
5.67115e-05
-0.000134714
-0.000388841
2.02172e-05
0.00151183
0.000292984
-0.000651942
0.00198571
0.000215167
-0.000670761
0.00236288
8.0088e-05
-0.000648867
0.00257812
-9.10816e-05
-0.000602067
-0.000295182
-0.000512454
0.000961196
-0.00105331
0.00145589
-0.00108369
0.00183184
-0.00106031
0.0020416
-0.000985799
-0.000851419
-0.00238532
0.000319173
0.0015134
-0.00269613
0.000157385
0.00171333
-0.00281845
-5.80237e-05
0.00186584
-0.000275706
0.0019976
-0.00350691
0.000550421
0.00148385
-0.00365841
0.000183849
0.00143715
-0.00357425
-0.000267218
0.00129037
-0.000664115
0.00117822
-0.00352748
0.000874483
0.000553181
-0.00362396
0.000348987
8.45831e-05
-0.00341683
-0.000330355
-0.000487789
-0.000804524
-0.00084859
-0.0033184
0.00125634
-0.000823254
-0.00332103
0.000741886
-0.00204909
-0.0027959
0.000178555
-0.00376097
-8.95831e-05
-0.00432206
-0.0033377
0.00167869
-0.00146619
-0.00328041
0.00119202
-0.00279735
-0.00265235
0.000759936
-0.00445123
-0.00221202
0.00066789
-0.00437177
0.000583543
-0.00348129
0.00221341
-0.00170144
-0.00342707
0.00175676
-0.00300523
-0.0027771
0.00138583
-0.00452412
-0.00231454
0.00138851
-0.00428654
0.00136272
-0.0042542
-0.00353225
0.00279283
-0.00168593
-0.00347274
0.00235952
-0.00291399
-0.00281758
0.00202597
-0.00436064
-0.00234565
0.00209177
-0.00411349
0.0021204
-0.00410291
-0.00353546
0.00339083
-0.0016035
-0.00347771
0.00297927
-0.00280826
-0.00281064
0.00266775
-0.00426641
-0.00232844
0.00278331
-0.00402584
0.00287023
-0.00402068
-0.003463
0.0039939
-0.00149845
-0.00341342
0.00362638
-0.00273732
-0.00273675
0.00334523
-0.00426776
-0.00225219
0.00349676
-0.00400424
0.00364623
-0.00397757
-0.00327853
0.00456868
-0.00135095
-0.0032455
0.0042862
-0.00262308
-0.0025911
0.00408957
-0.00425707
-0.0021246
0.00425853
-0.00396884
0.00447321
-0.00391046
-0.00298444
0.00506768
-0.00114075
-0.00297653
0.00490425
-0.00238509
-0.00238403
0.00493603
-0.00420592
-0.001947
0.00514103
-0.00399621
0.00541373
-0.0038885
-0.00255284
0.00540208
-0.000798955
-0.00251708
0.00527889
-0.00172751
-0.00213404
0.00538904
-0.00289152
-0.00180011
0.00564834
-0.00289252
0.00597325
-0.00285134
-0.00218605
0.00562999
-0.000482319
-0.00213439
0.00551378
-0.00118077
-0.00187434
0.00562849
-0.00191378
-0.00161714
0.00591757
-0.00197031
0.00626389
-0.00192443
-0.00189363
0.005795
-0.000213941
-0.0018269
0.00567577
-0.000767968
-0.00163911
0.00576691
-0.00123257
-0.00144047
0.00605277
-0.00126868
0.00639463
-0.00119731
-0.0016803
0.00592874
-6.65746e-06
-0.00159974
0.00580386
-0.000470919
-0.00145437
0.00587322
-0.000791029
-0.00129607
0.00613943
-0.000808118
0.00646611
-0.000726087
-0.00151489
0.0060457
0.000149627
-0.00143316
0.00592738
-0.000265097
-0.0013141
0.00597852
-0.000509263
-0.00118208
0.00621878
-0.000519525
0.00652582
-0.000435292
-0.00138724
0.00615388
0.000264174
-0.00131282
0.00605514
-0.000119567
-0.001207
0.00609107
-0.000331004
-0.00109224
0.00630586
-0.000342272
0.00659287
-0.000262812
-0.00128425
0.00625617
0.000345927
-0.00121999
0.00618264
-1.35966e-05
-0.00112159
0.00621203
-0.000217569
-0.00102017
0.00640511
-0.000236
0.00667384
-0.000165953
-0.00118774
0.00635034
0.00040076
-0.00113745
0.00630479
6.55672e-05
-0.00105002
0.0063399
-0.000140395
-0.000960071
0.00651528
-0.000172973
0.00676698
-0.000116097
-0.00109047
0.00643407
0.000436392
-0.00105657
0.00641906
0.000125694
-0.000981947
0.00646906
-8.41402e-05
-0.000902878
0.00663239
-0.00013464
0.00686837
-9.39826e-05
-0.000988093
0.00650544
0.000459524
-0.000971066
0.00652336
0.000173954
-0.00091006
0.00659471
-3.85059e-05
-0.000841326
0.00675245
-0.000108465
0.00697623
-8.55918e-05
-0.000877191
0.00656256
0.000475635
-0.000876137
0.00661544
0.000216429
-0.000828664
0.00671193
4.99935e-06
-0.000770507
0.00687263
-8.44224e-05
0.00709019
-7.98314e-05
-0.000754241
0.00660296
0.000488884
-0.000765446
0.00669181
0.000257258
-0.000731669
0.00681666
5.26664e-05
-0.000686493
0.00699099
-5.31148e-05
0.00720995
-6.69224e-05
-0.000616582
0.00662364
0.00050243
-0.000636404
0.00674881
0.000300491
-0.000617224
0.00690606
0.000109362
-0.000586335
0.00710264
-6.16061e-06
0.0073331
-3.68871e-05
-0.000461643
0.00662086
0.0005182
-0.000485783
0.00678183
0.000349069
-0.000479
0.00697496
0.000178151
-0.000463288
0.00720084
6.2832e-05
0.00745412
2.17261e-05
-0.00028689
0.00659021
0.000537154
-0.000309967
0.006785
0.00040473
-0.000311325
0.00701598
0.000261979
-0.000309001
0.00727707
0.000157766
0.00756374
0.000117847
-9.02712e-05
0.006527
0.000559265
-0.000105677
0.00675144
0.000468007
-0.000108962
0.00701983
0.000362791
-0.000115904
0.00731936
0.000283507
0.00764897
0.000261673
0.000129796
0.00642658
0.000582946
0.000130183
0.00667331
0.000538078
0.000133929
0.00697434
0.000482141
0.000125915
0.00731019
0.0004458
0.00768808
0.000468518
0.000373249
0.0062844
0.000605546
0.000398364
0.00654233
0.000611877
0.000419972
0.00686579
0.000618044
0.000422136
0.007229
0.000644762
0.00765434
0.000746299
0.000639743
0.00609542
0.000624761
0.00070095
0.0063484
0.000686507
0.000756795
0.00667401
0.000770157
0.000791232
0.0070401
0.000887067
0.00748903
0.00112921
0.000922637
0.00585734
0.000634915
0.00102874
0.00608731
0.000751738
0.00113105
0.00638874
0.000921472
0.00121256
0.00672621
0.00114265
0.00716304
0.00157052
0.00121667
0.00556687
0.000631125
0.0013808
0.00575137
0.000801274
0.0015558
0.0059833
0.00107008
0.00173211
0.00622381
0.00142758
0.00650284
0.00218605
0.00150095
0.00522948
0.000601587
0.00172005
0.00535662
0.000808909
0.00195866
0.00549002
0.00115241
0.00220342
0.00560073
0.00160391
0.00565542
0.00259078
0.00175994
0.00485057
0.000541411
0.00202809
0.00492069
0.000765253
0.00231838
0.00494568
0.001149
0.00261325
0.00491437
0.00165373
0.00472461
0.00275401
0.00198433
0.00442867
0.000451973
0.00230157
0.00444916
0.000669578
0.00264259
0.00436798
0.00105535
0.00299345
0.00418817
0.00157195
0.00374572
0.00268445
0.00215476
0.00395722
0.000337404
0.00251901
0.0039409
0.000525388
0.00290385
0.00377015
0.000871038
0.00330074
0.00345317
0.00134643
0.00277742
0.00235508
0.0022469
0.00341607
0.000206125
0.00265521
0.00338303
0.000349361
0.00307547
0.00315514
0.000625156
0.00349944
0.00273729
0.00101731
0.00189853
0.00183828
0.00222161
0.00278915
5.67436e-05
0.00266404
0.002752
0.000147103
0.00308892
0.00252085
0.000325826
0.00346067
0.00210885
0.000573316
0.00134839
0.00101219
0.00206007
0.00205124
-0.000108004
0.0025451
0.00200373
-6.75326e-05
0.00299082
0.0017978
2.77299e-05
0.00334665
0.00145045
0.00016786
0.000866242
0.000403344
0.00175453
0.00114744
-0.000296086
0.00228964
0.00110036
-0.00030251
0.00275697
0.000959564
-0.000277954
0.00309316
0.00073902
-0.000226831
0.000407429
-0.000130844
0.00119882
-0.000524726
0.00177845
-0.000562951
0.00225262
-0.000574919
0.00256305
-0.000557211
-0.000487208
-0.00220549
0.000757635
0.0012068
-0.00252223
0.000674289
0.00135578
-0.00264183
0.000518598
0.00146684
0.000377627
0.0015904
-0.00310565
0.001501
0.00114771
-0.00335435
0.00125526
0.00110488
-0.00335008
0.000814692
0.000990003
0.000459005
0.000944474
-0.00310197
0.00205634
0.000394732
-0.00334328
0.0015557
2.54533e-05
-0.00318982
0.000670063
-0.000496621
0.000100715
-0.000768572
-0.00278769
0.00230271
-0.000661538
-0.00291
0.00159682
-0.0019679
-0.00225616
0.000722834
-0.00446758
0.000357949
-0.00505901
-0.00265026
0.00250508
-0.00119882
-0.0027809
0.00170662
-0.00277649
-0.00210031
0.000935736
-0.00534473
0.000803379
-0.00520891
-0.00266683
0.00280315
-0.0014314
-0.00289036
0.00197623
-0.0030513
-0.00223154
0.00126321
-0.00551042
-0.00182662
0.00127968
-0.00516776
0.00124384
-0.00260552
0.00318876
-0.00145785
-0.00289511
0.00235622
-0.00300439
-0.00225906
0.00168561
-0.00541908
-0.00185285
0.00179089
-0.00503092
0.00182053
-0.00500566
-0.00251557
0.00365945
-0.0014169
-0.0028696
0.00282686
-0.00292487
-0.00224061
0.00216923
-0.00537901
-0.0018302
0.00232605
-0.00497141
0.0024175
-0.00494088
-0.00235209
0.00418282
-0.00131238
-0.00277082
0.00338376
-0.00287548
-0.00215098
0.00273418
-0.00545255
-0.00174391
0.0029142
-0.00499945
0.00307318
-0.00493791
-0.00204153
0.0046869
-0.00112684
-0.00253222
0.0039961
-0.00274473
-0.00197994
0.00343126
-0.00550643
-0.00160417
0.00358734
-0.00501776
0.00382416
-0.0049297
-0.00154791
0.00509725
-0.000881753
-0.0021104
0.00454008
-0.00236657
-0.00170421
0.00433622
-0.00551707
-0.00138508
0.00451084
-0.00523884
0.00482852
-0.00511379
-0.000870873
0.00532261
-0.00053864
-0.0013168
0.004749
-0.0014905
-0.00130377
0.00459111
-0.00315944
-0.00120288
0.00480241
-0.00328498
0.0051716
-0.00334057
-0.000365933
0.00547661
-0.000281165
-0.000730261
0.00485959
-0.000927026
-0.000879858
0.00462427
-0.00179735
-0.000901863
0.0048068
-0.0019527
0.00515599
-0.00198352
2.02357e-06
0.00559718
-8.89233e-05
-0.000297712
0.00495236
-0.000561
-0.000507342
0.00462213
-0.0010208
-0.000612021
0.00473571
-0.0010929
0.00503145
-0.00106393
0.000254448
0.00570355
4.37263e-05
-6.07866e-06
0.00506997
-0.000328002
-0.000241303
0.00466748
-0.000601153
-0.000393845
0.00470692
-0.000626784
0.00494673
-0.000575948
0.000403533
0.00581158
0.000135173
0.00018481
0.00520881
-0.00018521
-5.48166e-05
0.00477268
-0.000374839
-0.000230526
0.00474397
-0.000380871
0.0049302
-0.000319617
0.000487242
0.0059236
0.000199937
0.000308027
0.00536359
-9.51337e-05
7.64394e-05
0.00492369
-0.000250429
-0.000110305
0.00484121
-0.000252766
0.00498072
-0.000192405
0.000533691
0.00603716
0.000246568
0.000389555
0.00552983
-3.57037e-05
0.000172653
0.00510416
-0.00018113
-1.86561e-05
0.00498492
-0.000188404
0.0050853
-0.000134852
0.000556562
0.00615109
0.000280764
0.000442926
0.00570183
7.20252e-06
0.000248343
0.00529932
-0.000140973
5.78064e-05
0.00516013
-0.000157644
0.00522962
-0.000114467
0.000573837
0.0062618
0.000305326
0.000487441
0.00587229
4.16293e-05
0.000315937
0.00550021
-0.000113527
0.000129804
0.00535454
-0.000142912
0.00540235
-0.000112232
0.000594897
0.00636575
0.000323864
0.00053315
0.00603546
7.25341e-05
0.000384153
0.00570069
-8.999e-05
0.000204468
0.0055595
-0.000133741
0.00559516
-0.000116472
0.000625758
0.00645952
0.000339643
0.000586666
0.00618705
0.000103929
0.000458856
0.0058978
-6.4302e-05
0.000287083
0.00576974
-0.000122889
0.00580259
-0.000119238
0.000669758
0.00653993
0.000355475
0.000649523
0.006325
0.000139546
0.000542161
0.00608855
-3.07217e-05
0.000382002
0.00598099
-0.000104211
0.00602204
-0.000113724
0.000729502
0.00660369
0.000373586
0.000726703
0.00644671
0.000181576
0.000640933
0.00626782
1.58698e-05
0.000494282
0.00619217
-7.06866e-05
0.00625382
-9.24115e-05
0.000807034
0.00664735
0.000395379
0.000823568
0.00654816
0.000231091
0.000757982
0.00643216
7.93931e-05
0.000624757
0.00640148
-1.32584e-05
0.0064982
-4.57884e-05
0.000904051
0.00666712
0.000421415
0.000942757
0.00662462
0.000289563
0.000900184
0.00657607
0.000160647
0.000782115
0.00660292
7.44039e-05
0.00675361
4.07776e-05
0.00102195
0.00665883
0.000451206
0.00108697
0.00667057
0.000357037
0.00107301
0.00669197
0.000260844
0.00097735
0.00678671
0.000195369
0.00701224
0.000178018
0.00116204
0.0066172
0.000483309
0.00125936
0.00667854
0.00043279
0.00128255
0.00676889
0.000382034
0.0012214
0.0069369
0.000356763
0.00725795
0.000384445
0.00132406
0.00653647
0.000515094
0.00146052
0.00664013
0.000513823
0.00153085
0.00679416
0.000522449
0.00151879
0.00703416
0.000559556
0.00746955
0.000671327
0.00150863
0.00640914
0.00054407
0.00169531
0.00654213
0.000597826
0.00183227
0.00674257
0.000684783
0.00190262
0.00703193
0.000818947
0.00756996
0.0011
0.00170743
0.0062304
0.000564018
0.00195018
0.00637793
0.000673194
0.0021631
0.006602
0.000849117
0.00232777
0.00691291
0.001097
0.0075345
0.00160525
0.00191834
0.0059911
0.0005711
0.00223329
0.00612812
0.000736138
0.00256425
0.00631719
0.00102392
0.00291105
0.00655218
0.0014415
0.00700673
0.00245158
0.00211124
0.00569652
0.000552328
0.0024822
0.00581199
0.000754075
0.00289504
0.0059367
0.00112007
0.00333817
0.00606951
0.00164344
0.00628566
0.00294519
0.00227263
0.00535088
0.000505025
0.00268565
0.00544319
0.000721033
0.00315339
0.00549294
0.00112501
0.00365535
0.00551407
0.00170721
0.00547231
0.00314457
0.00239704
0.0049522
0.000432487
0.00284874
0.00502175
0.000639316
0.00336428
0.0049934
0.00103934
0.00392733
0.00489222
0.00163075
0.00457751
0.00307582
0.00246777
0.00449613
0.000341797
0.00295274
0.00454569
0.000516486
0.0035019
0.00444697
0.000868302
0.00410792
0.00422631
0.00140633
0.00364666
0.00271279
0.00246723
0.00397137
0.000248031
0.00298211
0.00400316
0.000377009
0.00355536
0.00384781
0.000651074
0.0041872
0.003523
0.00108878
0.00271197
0.00216501
0.00236385
0.00335653
0.000166661
0.00288761
0.00338355
0.00024296
0.00342662
0.00322581
0.000408817
0.0039482
0.00290111
0.000673626
0.00216328
0.00120533
0.00215498
0.00258311
0.000129571
0.00270371
0.00259633
0.000170956
0.00324064
0.00245621
0.000260397
0.00372511
0.00217748
0.000407004
0.00160554
0.000682748
0.00182135
0.00154345
0.00016007
0.00240575
0.00153751
0.000171912
0.00294864
0.00143856
0.000196804
0.00339807
0.00125957
0.000241656
0.000927557
0.000332759
0.00124648
0.000365796
0.00187481
0.000346227
0.00242117
0.000317277
0.00283579
0.000287735
0.000284223
-0.00191274
0.00104232
0.000634767
-0.00226323
0.0010073
0.000698962
-0.00239004
0.000865075
0.000728576
0.000787656
0.000787324
-0.00264128
0.00207406
0.000613133
-0.00299518
0.00188782
0.000578251
-0.0030247
0.00141476
0.000469835
0.00116802
0.000437525
-0.00271134
0.00283233
0.000192497
-0.00312159
0.00233241
-8.88189e-06
-0.002963
0.0011719
-0.00041235
0.000706447
-0.000537901
-0.0022776
0.00313577
-0.000393279
-0.0025826
0.00226436
-0.00159486
-0.00176857
0.00103327
-0.00514298
0.000696971
-0.00551582
-0.00192908
0.00324944
-0.000614481
-0.00230444
0.00214479
-0.00228157
-0.00159613
0.000976543
-0.00599631
0.000866161
-0.00571702
-0.00171773
0.0033994
-0.000706794
-0.0023249
0.00218006
-0.00247941
-0.00171017
0.00104895
-0.00619755
0.00110513
-0.00575048
-0.00142342
0.00364567
-0.000707984
-0.00224119
0.00237765
-0.0023842
-0.00170843
0.00128418
-0.00618707
-0.00138002
0.00143656
-0.00569075
0.00146821
-0.00112591
0.00404582
-0.000681807
-0.00214307
0.00272747
-0.00225753
-0.00166395
0.00162756
-0.00620151
-0.00134772
0.00182894
-0.00568003
0.00191787
-0.00562102
-0.000749316
0.00458734
-0.000617078
-0.00197113
0.00321895
-0.00214515
-0.0015482
0.00207662
-0.00632455
-0.00125105
0.00229918
-0.00576683
0.00245583
-0.00567773
-0.000178111
0.00515083
-0.000484645
-0.00161542
0.00383051
-0.00191898
-0.0013453
0.00272317
-0.0064231
-0.00110187
0.00287389
-0.00583591
0.00311507
-0.00574121
0.000590765
0.00557326
-0.000331499
-0.000893549
0.00442871
-0.00148046
-0.000956411
0.0037232
-0.00645424
-0.000826133
0.00378877
-0.00628399
0.00412909
-0.00620229
0.00151269
0.00571834
-0.000140759
0.000509561
0.00466298
-0.000721645
-0.000234607
0.00379596
-0.00248804
-0.000564886
0.00372267
-0.0028886
0.00403432
-0.00315759
0.00207866
0.00577189
-5.52707e-05
0.00134388
0.00486264
-0.000391911
0.000532655
0.00386034
-0.0010505
5.43513e-05
0.00348455
-0.00123628
0.00354462
-0.00131311
0.00243076
0.00578502
-1.40185e-05
0.00193002
0.00501638
-0.000213995
0.00121019
0.00401301
-0.000453636
0.00066046
0.00339391
-0.000452539
0.00318312
-0.00037298
0.00260388
0.005792
4.09395e-06
0.00226673
0.00515468
-0.00012915
0.00165817
0.00424066
-0.000220243
0.00107621
0.0035164
-0.000167307
0.00310472
-6.48277e-05
0.00264995
0.00580984
1.21844e-05
0.00243131
0.00528041
-9.23005e-05
0.00194195
0.00448677
-0.000131585
0.00139129
0.00375897
-7.27835e-05
0.00323411
2.42632e-05
0.00262365
0.00584294
1.72414e-05
0.00249032
0.0053958
-7.71911e-05
0.00210437
0.00472139
-9.91017e-05
0.00161393
0.00404486
-4.82138e-05
0.00348816
2.97693e-05
0.00255976
0.00588925
2.22195e-05
0.00248741
0.00550338
-7.09418e-05
0.00218218
0.00493395
-8.84596e-05
0.00175427
0.00433014
-4.57717e-05
0.00379308
1.82355e-05
0.00247942
0.00594453
2.84677e-05
0.00245151
0.00560561
-6.71184e-05
0.00220711
0.00512371
-8.63323e-05
0.00183317
0.00459729
-5.08544e-05
0.00410695
4.12622e-06
0.00239462
0.00600449
3.63965e-05
0.00240005
0.00570428
-6.24703e-05
0.00220337
0.00529359
-8.67236e-05
0.0018738
0.00484194
-5.79929e-05
0.0044103
-9.26473e-06
0.00231627
0.00606429
4.59698e-05
0.00234849
0.00579991
-5.53251e-05
0.00219018
0.00544806
-8.6147e-05
0.00189677
0.00506597
-6.4362e-05
0.00469782
-2.13829e-05
0.00225122
0.00611934
5.77257e-05