/*--------------------------------*- C++ -*----------------------------------*\
| =========                 |                                                 |
| \\      /  F ield         | OpenFOAM: The Open Source CFD Toolbox           |
|  \\    /   O peration     | Version:  2.3.1                                 |
|   \\  /    A nd           | Web:      www.OpenFOAM.org                      |
|    \\/     M anipulation  |                                                 |
\*---------------------------------------------------------------------------*/
FoamFile
{
    version     2.0;
    format      ascii;
    class       volScalarField;
    location    "600";
    object      T;
}
// * * * * * * * * * * * * * * * * * * * * * * * * * * * * * * * * * * * * * //

dimensions      [0 0 0 1 0 0 0];

internalField   nonuniform List<scalar> 
6852
(
289.15
289.15
289.15
289.15
289.15
289.15
289.15
289.15
289.15
289.15
289.15
289.15
289.15
289.15
289.15
289.15
289.15
289.15
289.15
289.15
289.15
289.15
289.15
289.15
289.15
289.15
289.15
289.15
289.15
289.15
289.15
289.15
289.15
289.15
289.15
289.15
289.15
289.15
289.15
289.15
289.15
289.15
289.15
289.15
289.15
289.15
289.15
289.15
289.15
289.15
289.15
289.15
289.15
289.15
289.15
289.15
289.15
289.15
289.15
289.15
289.15
289.15
289.15
289.15
289.15
289.15
289.15
289.15
289.15
289.15
289.15
289.15
289.15
289.15
289.15
289.15
289.15
289.15
289.15
289.15
289.15
289.15
289.15
289.15
289.15
289.15
289.15
289.15
289.15
289.15
289.15
289.15
289.15
289.15
289.15
289.15
289.15
289.15
289.15
289.15
289.15
289.15
289.15
289.15
289.15
289.15
289.15
289.15
289.15
289.15
289.15
289.15
289.15
289.15
289.15
289.15
289.15
289.15
289.15
289.15
289.15
289.15
289.15
289.15
289.15
289.15
289.15
289.15
289.15
289.15
289.15
289.15
289.15
289.15
289.15
289.15
289.15
289.15
289.15
289.15
289.15
289.15
289.15
289.15
289.15
289.15
289.15
289.15
289.15
289.15
289.15
289.15
289.15
289.15
289.15
289.15
289.15
289.15
289.15
289.15
289.15
289.15
289.15
289.15
289.15
289.15
289.15
289.15
289.15
289.15
289.15
289.15
289.15
289.15
289.15
289.15
289.15
289.15
289.15
289.15
289.15
289.15
289.15
289.15
289.15
289.15
289.15
289.15
289.15
289.15
289.15
289.15
289.15
289.15
289.15
289.15
289.15
289.15
289.15
289.15
289.15
289.15
289.15
289.15
289.15
289.15
289.15
289.15
289.15
289.15
289.15
289.15
289.15
289.15
289.15
289.15
289.15
289.15
289.15
289.15
289.15
289.15
289.15
289.15
289.15
289.15
289.15
289.15
289.15
289.15
289.15
289.15
289.15
289.15
289.15
289.15
289.15
289.15
289.15
289.15
289.15
289.15
289.15
289.15
289.15
289.15
289.15
289.15
289.15
289.15
289.15
289.15
289.15
289.15
289.15
289.15
289.15
289.15
289.15
289.15
289.15
289.15
289.15
289.15
289.15
289.15
289.15
289.15
289.15
289.15
289.15
289.15
289.15
289.15
289.15
289.15
289.15
289.15
289.15
289.15
289.15
289.15
289.15
289.15
289.15
289.15
289.15
289.15
289.15
289.15
289.15
289.15
289.15
289.15
289.15
289.15
289.15
289.15
289.15
289.15
289.15
289.15
289.15
289.15
289.15
289.15
289.15
289.15
289.15
289.15
289.15
289.15
289.15
289.15
289.15
289.15
289.15
289.15
289.15
289.15
289.15
289.15
289.15
289.15
289.15
289.15
289.15
289.15
289.15
289.15
289.15
289.15
289.15
289.15
289.15
289.15
289.15
289.15
289.15
289.15
289.15
289.15
289.15
289.15
289.15
289.15
289.15
289.15
289.15
289.15
289.15
289.15
289.15
289.15
289.15
289.15
289.15
289.15
289.15
289.15
289.15
289.15
289.15
289.15
289.15
289.15
289.15
289.15
289.15
289.15
289.15
289.15
289.15
289.15
289.15
289.15
289.15
289.15
289.15
289.15
289.15
289.15
289.15
289.15
289.15
289.15
289.15
289.15
289.15
289.15
289.15
289.15
289.15
289.15
289.15
289.15
289.15
289.15
289.15
289.15
289.15
289.15
289.15
289.15
289.15
289.15
289.15
289.15
289.15
289.15
289.15
289.15
289.15
289.15
289.15
289.15
289.15
289.15
289.15
289.15
289.15
289.15
289.15
289.15
289.15
289.15
289.15
289.15
289.15
289.15
289.15
289.15
289.15
289.15
289.15
289.15
289.15
289.15
289.15
289.15
289.15
289.15
289.15
289.15
289.15
289.15
289.15
289.15
289.15
289.15
289.15
289.15
289.15
289.15
289.15
289.15
289.15
289.15
289.15
289.15
289.15
289.15
289.15
289.15
289.15
289.15
289.15
289.15
289.15
289.15
289.15
289.15
289.15
289.15
289.15
289.15
289.15
289.15
289.15
289.15
289.15
289.15
289.15
289.15
289.15
289.15
289.15
289.15
289.15
289.15
289.15
289.15
289.15
289.15
289.15
289.15
289.15
289.15
289.15
289.15
289.15
289.15
289.15
289.15
289.15
289.15
289.15
289.15
289.15
289.15
289.15
289.15
289.15
289.15
289.15
289.15
289.15
289.15
289.15
289.15
289.15
289.15
289.15
289.15
289.15
289.15
289.15
289.15
289.15
289.15
289.15
289.15
289.15
289.15
289.15
289.15
289.15
289.15
289.15
289.15
289.15
289.15
289.15
289.15
289.15
289.15
289.15
289.15
289.15
289.15
289.15
289.15
289.15
289.15
289.15
289.15
289.15
289.15
289.15
289.15
289.15
289.15
289.15
289.15
289.15
289.15
289.15
289.15
289.15
289.15
289.15
289.15
289.15
289.15
289.15
289.15
289.15
289.15
289.15
289.15
289.15
289.15
289.15
289.15
289.15
289.15
289.15
289.15
289.15
289.15
289.15
289.15
289.15
289.15
289.15
289.15
289.15
289.15
289.15
289.15
289.15
289.15
289.15
289.15
289.15
289.15
289.15
289.15
289.15
289.15
289.15
289.15
289.15
289.15
289.15
289.15
289.15
289.15
289.15
289.15
289.15
289.15
289.15
289.15
289.15
289.15
289.15
289.15
289.15
289.15
289.15
289.15
289.15
289.15
289.15
289.15
289.15
289.15
289.15
289.15
289.15
289.15
289.15
289.15
289.15
289.15
289.15
289.15
289.15
289.15
289.15
289.15
289.15
289.15
289.15
289.15
289.15
289.15
289.15
289.15
289.15
289.15
289.15
289.15
289.15
289.15
289.15
289.15
289.15
289.15
289.15
289.15
289.15
289.15
289.15
289.15
289.15
289.15
289.15
289.15
289.15
289.15
289.15
289.15
289.15
289.15
289.15
289.15
289.15
289.15
289.15
289.15
289.15
289.15
289.15
289.15
289.15
289.15
289.15
289.15
289.15
289.15
289.15
289.15
289.15
289.15
289.15
289.15
289.15
289.15
289.15
289.15
289.15
289.15
289.15
289.15
289.15
289.15
289.15
289.15
289.15
289.15
289.15
289.15
289.15
289.15
289.15
289.15
289.15
289.15
289.15
289.15
289.15
289.15
289.15
289.15
289.15
289.15
289.15
289.15
289.15
289.15
289.15
289.15
289.15
289.15
289.15
289.15
289.15
289.15
289.15
289.15
289.15
289.15
289.15
289.15
289.15
289.15
289.15
289.15
289.15
289.15
289.15
289.15
289.15
289.15
289.15
289.15
289.15
289.15
289.15
289.15
289.15
289.15
289.15
289.15
289.15
289.15
289.15
289.15
289.15
289.15
289.15
289.15
289.15
289.15
289.15
289.15
289.15
289.15
289.15
289.15
289.15
289.15
289.15
289.15
289.15
289.15
289.15
289.15
289.15
289.15
289.15
289.15
289.15
289.15
289.15
289.15
289.15
289.15
289.15
289.15
289.15
289.15
289.15
289.15
289.15
289.15
289.15
289.15
289.15
289.15
289.15
289.15
289.15
289.15
289.15
289.15
289.15
289.15
289.15
289.15
289.15
289.15
289.15
289.15
289.15
289.15
289.15
289.15
289.15
289.15
289.15
289.15
289.15
289.15
289.15
289.15
289.15
289.15
289.15
289.15
289.15
289.15
289.15
289.15
289.15
289.15
289.15
289.15
289.15
289.15
289.15
289.15
289.15
289.15
289.15
289.15
289.15
289.15
289.15
289.15
289.15
289.15
289.15
289.15
289.15
289.15
289.15
289.15
289.15
289.15
289.15
289.15
289.15
289.15
289.15
289.15
289.15
289.15
289.15
289.15
289.15
289.15
289.15
289.15
289.15
289.15
289.15
289.15
289.15
289.15
289.15
289.15
289.15
289.15
289.15
289.15
289.15
289.15
289.15
289.15
289.15
289.15
289.15
289.15
289.15
289.15
289.15
289.15
289.15
289.15
289.15
289.15
289.15
289.15
289.15
289.15
289.15
289.15
289.15
289.15
289.15
289.15
289.15
289.15
289.15
289.15
289.15
289.15
289.15
289.15
289.15
289.15
289.15
289.15
289.15
289.15
289.15
289.15
289.15
289.15
289.15
289.15
289.15
289.15
289.15
289.15
289.15
289.15
289.15
289.15
289.15
289.15
289.15
289.15
289.15
289.15
289.15
289.15
289.15
289.15
289.15
289.15
289.15
289.15
289.15
289.15
289.15
289.15
289.15
289.15
289.15
289.15
289.15
289.15
289.15
289.15
289.15
289.15
289.15
289.15
289.15
289.15
289.15
289.15
289.15
289.15
289.15
289.15
289.15
289.15
289.15
289.15
289.15
289.15
289.15
289.15
289.15
289.15
289.15
289.15
289.15
289.15
289.15
289.15
289.15
289.15
289.15
289.15
289.15
289.15
289.15
289.15
289.15
289.15
289.15
289.15
289.15
289.15
289.15
289.15
289.15
289.15
289.15
289.15
289.15
289.15
289.15
289.15
289.15
289.15
289.15
289.15
289.15
289.15
289.15
289.15
289.15
289.15
289.15
289.15
289.15
289.15
289.15
289.15
289.15
289.15
289.15
289.15
289.15
289.15
289.15
289.15
289.15
289.15
289.15
289.15
289.15
289.15
289.15
289.15
289.15
289.15
289.15
289.15
289.15
289.15
289.15
289.15
289.15
289.15
289.15
289.15
289.15
289.15
289.15
289.15
289.15
289.15
289.15
289.15
289.15
289.15
289.15
289.15
289.15
289.15
289.15
289.15
289.15
289.15
289.15
289.15
289.15
289.15
289.15
289.15
289.15
289.15
289.15
289.15
289.15
289.15
289.15
289.15
289.15
289.15
289.15
289.15
289.15
289.15
289.15
289.15
289.15
289.15
289.15
289.15
289.15
289.15
289.15
289.15
289.15
289.15
289.15
289.15
289.15
289.15
289.15
289.15
289.15
289.15
289.15
289.15
289.15
289.15
289.15
289.15
289.15
289.15
289.15
289.15
289.15
289.15
289.15
289.15
289.15
289.15
289.15
289.15
289.15
289.15
289.15
289.15
289.15
289.15
289.15
289.15
289.15
289.15
289.15
289.15
289.15
289.15
289.15
289.15
289.15
289.15
289.15
289.15
289.15
289.15
289.15
289.15
289.15
289.15
289.15
289.15
289.15
289.15
289.15
289.15
289.15
289.15
289.15
289.15
289.15
289.15
289.15
289.15
289.15
289.15
289.15
289.15
289.15
289.15
289.15
289.15
289.15
289.15
289.15
289.15
289.15
289.15
289.15
289.15
289.15
289.15
289.15
289.15
289.15
289.15
289.15
289.15
289.15
289.15
289.15
289.15
289.15
289.15
289.15
289.15
289.15
289.15
289.15
289.15
289.15
289.15
289.15
289.15
290.199
290.2
290.201
290.202
290.204
290.197
290.199
290.2
290.201
290.203
290.194
290.196
290.197
290.199
290.201
290.193
290.195
290.188
290.19
290.183
290.186
290.178
290.183
290.173
290.178
290.166
290.174
290.159
290.168
290.149
290.16
290.135
290.147
290.136
290.117
290.095
290.117
290.129
290.122
290.107
290.087
290.097
290.105
290.099
290.084
290.066
290.075
290.079
290.072
290.059
290.043
290.054
290.053
290.045
290.034
290.022
290.033
290.028
290.02
290.011
290.002
290.014
290.005
289.997
289.99
289.985
289.994
289.984
289.976
289.971
289.971
289.974
289.963
289.956
289.956
289.964
289.955
289.943
289.939
289.947
289.981
289.935
289.923
289.925
289.947
290.048
289.915
289.905
289.914
289.958
290.178
289.895
289.887
289.905
289.969
290.248
289.875
289.87
289.895
289.973
290.252
289.855
289.852
289.884
289.971
290.229
289.836
289.834
289.87
289.961
290.194
289.817
289.815
289.853
289.944
290.153
289.798
289.795
289.833
289.92
290.106
289.779
289.775
289.809
289.889
290.053
289.762
289.755
289.782
289.851
289.99
289.745
289.736
289.755
289.809
289.896
289.732
289.719
289.728
289.764
289.81
289.722
289.705
289.705
289.725
289.743
289.716
289.695
289.688
289.694
289.694
289.715
289.691
289.678
289.674
289.664
289.719
289.693
289.676
289.665
289.649
289.729
289.703
289.684
289.67
289.659
289.744
289.72
289.702
289.688
289.68
289.765
289.744
289.727
289.716
289.71
289.782
289.764
289.748
289.736
289.725
290.202
290.205
290.206
290.207
290.208
290.2
290.203
290.206
290.207
290.209
290.196
290.2
290.202
290.204
290.205
290.191
290.196
290.199
290.19
290.193
290.184
290.189
290.177
290.184
290.169
290.179
290.16
290.174
290.148
290.167
290.132
290.156
290.111
290.135
290.118
290.089
290.06
290.083
290.102
290.088
290.064
290.037
290.053
290.062
290.05
290.029
290.007
290.022
290.023
290.011
289.994
289.977
289.993
289.986
289.975
289.962
289.951
289.966
289.955
289.944
289.935
289.93
289.942
289.928
289.918
289.913
289.915
289.92
289.904
289.897
289.899
289.912
289.899
289.884
289.882
289.895
289.93
289.879
289.866
289.873
289.907
290.002
289.859
289.851
289.87
289.937
290.151
289.84
289.837
289.871
289.973
290.324
289.821
289.823
289.868
289.987
290.317
289.802
289.808
289.86
289.984
290.278
289.784
289.79
289.845
289.969
290.232
289.765
289.772
289.826
289.947
290.184
289.747
289.752
289.803
289.917
290.133
289.729
289.731
289.777
289.881
290.079
289.713
289.711
289.748
289.84
290.019
289.698
289.691
289.719
289.795
289.952
289.686
289.673
289.69
289.749
289.861
289.676
289.659
289.665
289.707
289.772
289.669
289.648
289.645
289.67
289.702
289.666
289.641
289.632
289.642
289.651
289.668
289.64
289.625
289.625
289.62
289.677
289.647
289.628
289.619
289.603
289.693
289.663
289.642
289.627
289.614
289.715
289.687
289.665
289.649
289.638
289.74
289.715
289.695
289.68
289.67
289.765
289.744
289.727
289.714
289.706
290.209
290.212
290.215
290.216
290.218
290.204
290.209
290.212
290.215
290.218
290.198
290.204
290.208
290.212
290.214
290.192
290.2
290.206
290.183
290.193
290.2
290.186
290.194
290.177
290.189
290.167
290.182
290.154
290.175
290.136
290.165
290.112
290.148
290.08
290.111
290.078
290.039
290.04
290.059
290.035
290.005
289.979
289.998
290.003
289.984
289.961
289.942
289.958
289.952
289.936
289.919
289.907
289.922
289.909
289.895
289.884
289.879
289.891
289.874
289.862
289.857
289.862
289.864
289.846
289.838
289.842
289.86
289.841
289.823
289.822
289.841
289.885
289.819
289.806
289.817
289.863
289.962
289.8
289.793
289.823
289.913
290.131
289.782
289.784
289.838
289.985
290.379
289.765
289.775
289.849
290.044
290.59
289.747
289.762
289.843
290.037
290.482
289.729
289.745
289.825
290.006
290.371
289.712
289.726
289.801
289.965
290.277
289.694
289.705
289.773
289.92
290.194
289.678
289.685
289.743
289.873
290.116
289.663
289.664
289.712
289.824
290.039
289.65
289.645
289.681
289.774
289.964
289.639
289.628
289.651
289.724
289.888
289.63
289.613
289.624
289.68
289.787
289.623
289.601
289.603
289.642
289.703
289.617
289.593
289.587
289.611
289.642
289.614
289.587
289.576
289.588
289.597
289.616
289.589
289.573
289.574
289.571
289.629
289.599
289.58
289.572
289.557
289.654
289.623
289.6
289.585
289.569
289.686
289.656
289.632
289.614
289.599
289.72
289.693
289.671
289.654
289.642
289.753
289.732
289.713
289.698
289.687
290.215
290.22
290.224
290.227
290.229
290.208
290.215
290.22
290.225
290.228
290.201
290.209
290.216
290.221
290.224
290.193
290.205
290.214
290.184
290.198
290.209
290.172
290.19
290.203
290.179
290.196
290.166
290.188
290.147
290.178
290.122
290.162
290.088
290.134
290.044
290.078
290.036
289.998
289.992
290.008
289.981
289.953
289.94
289.939
289.919
289.9
289.887
289.892
289.881
289.865
289.853
289.848
289.851
289.834
289.821
289.817
289.822
289.817
289.798
289.789
289.795
289.816
289.788
289.77
289.769
289.79
289.838
289.764
289.749
289.762
289.81
289.908
289.743
289.736
289.769
289.863
290.058
289.725
289.728
289.789
289.951
290.316
289.708
289.723
289.814
290.052
290.626
289.692
289.714
289.823
290.105
290.817
289.675
289.698
289.804
290.055
290.588
289.658
289.678
289.772
289.986
290.405
289.641
289.657
289.737
289.919
290.265
289.627
289.636
289.703
289.858
290.151
289.614
289.617
289.671
289.801
290.051
289.603
289.6
289.641
289.747
289.961
289.594
289.584
289.612
289.696
289.879
289.586
289.571
289.586
289.649
289.803
289.578
289.559
289.564
289.614
289.71
289.57
289.549
289.548
289.585
289.64
289.563
289.541
289.536
289.561
289.591
289.557
289.536
289.528
289.543
289.554
289.558
289.537
289.526
289.532
289.532
289.573
289.55
289.535
289.531
289.523
289.608
289.58
289.56
289.547
289.535
289.653
289.625
289.601
289.583
289.567
289.701
289.674
289.652
289.634
289.619
289.745
289.723
289.703
289.687
289.675
290.221
290.228
290.233
290.238
290.241
290.213
290.222
290.23
290.236
290.24
290.205
290.216
290.226
290.232
290.236
290.196
290.211
290.224
290.185
290.205
290.22
290.172
290.196
290.213
290.155
290.183
290.205
290.165
290.195
290.141
290.179
290.108
290.154
290.063
290.112
290.008
290.041
290
289.968
289.945
289.957
289.933
289.912
289.884
289.88
289.864
289.851
289.83
289.817
289.805
289.8
289.805
289.785
289.768
289.761
289.766
289.786
289.748
289.731
289.73
289.751
289.797
289.718
289.704
289.715
289.762
289.855
289.693
289.686
289.716
289.805
289.983
289.672
289.675
289.732
289.883
290.198
289.654
289.669
289.758
289.99
290.499
289.638
289.663
289.781
290.093
290.818
289.622
289.651
289.779
290.118
290.947
289.606
289.631
289.741
290.013
290.587
289.591
289.609
289.699
289.914
290.342
289.577
289.589
289.66
289.833
290.172
289.566
289.571
289.627
289.767
290.044
289.557
289.556
289.599
289.711
289.939
289.55
289.543
289.573
289.662
289.851
289.543
289.532
289.551
289.618
289.776
289.536
289.522
289.531
289.581
289.713
289.528
289.512
289.516
289.558
289.639
289.518
289.503
289.504
289.54
289.585
289.508
289.495
289.495
289.522
289.547
289.5
289.489
289.488
289.506
289.518
289.501
289.489
289.486
289.497
289.501
289.517
289.504
289.497
289.498
289.495
289.558
289.54
289.526
289.517
289.509
289.62
289.596
289.575
289.558
289.544
289.684
289.659
289.638
289.619
289.602
289.739
289.717
289.697
289.68
289.666
290.228
290.237
290.244
290.249
290.253
290.219
290.23
290.24
290.248
290.254
290.209
290.224
290.237
290.245
290.25
290.2
290.22
290.237
290.188
290.213
290.233
290.174
290.203
290.226
290.154
290.188
290.216
290.129
290.167
290.202
290.137
290.18
290.095
290.145
290.04
290.089
289.975
290.006
289.973
289.949
289.903
289.913
289.896
289.882
289.834
289.831
289.821
289.815
289.775
289.766
289.76
289.764
289.728
289.716
289.716
289.733
289.774
289.69
289.679
289.689
289.729
289.811
289.659
289.654
289.679
289.754
289.907
289.634
289.637
289.684
289.812
290.077
289.614
289.626
289.7
289.899
290.326
289.596
289.617
289.72
289.999
290.625
289.58
289.608
289.731
290.075
290.888
289.564
289.592
289.716
290.064
290.935
289.549
289.571
289.668
289.919
290.464
289.536
289.55
289.623
289.808
290.189
289.526
289.533
289.588
289.73
290.02
289.518
289.519
289.56
289.671
289.902
289.511
289.508
289.538
289.625
289.809
289.505
289.499
289.519
289.587
289.735
289.499
289.49
289.503
289.553
289.676
289.491
289.482
289.489
289.528
289.63
289.482
289.473
289.479
289.516
289.58
289.472
289.465
289.471
289.503
289.54
289.462
289.458
289.464
289.489
289.51
289.456
289.454
289.459
289.478
289.488
289.458
289.456
289.459
289.471
289.475
289.476
289.472
289.471
289.475
289.473
289.521
289.511
289.502
289.495
289.49
289.595
289.577
289.559
289.542
289.527
289.673
289.65
289.629
289.61
289.59
289.736
289.714
289.694
289.676
289.658
290.235
290.246
290.256
290.262
290.267
290.225
290.24
290.253
290.262
290.268
290.215
290.234
290.25
290.259
290.266
290.205
290.23
290.251
290.192
290.223
290.248
290.176
290.212
290.242
290.155
290.195
290.229
290.127
290.17
290.21
290.09
290.135
290.181
290.086
290.137
290.022
290.07
289.948
289.979
289.955
289.938
289.868
289.88
289.87
289.862
289.795
289.795
289.791
289.793
289.734
289.729
289.732
289.745
289.687
289.682
289.691
289.72
289.649
289.648
289.667
289.723
289.84
289.619
289.622
289.657
289.754
289.959
289.593
289.604
289.66
289.814
290.148
289.572
289.59
289.67
289.893
290.395
289.553
289.577
289.679
289.97
290.656
289.537
289.563
289.676
290.008
290.838
289.522
289.546
289.649
289.961
290.783
289.508
289.525
289.602
289.812
290.281
289.497
289.507
289.561
289.704
290.005
289.488
289.493
289.532
289.637
289.858
289.48
289.482
289.51
289.591
289.763
289.474
289.473
289.494
289.557
289.692
289.468
289.465
289.481
289.529
289.637
289.462
289.458
289.469
289.506
289.595
289.454
289.452
289.46
289.49
289.568
289.447
289.445
289.453
289.484
289.533
289.439
289.439
289.449
289.477
289.504
289.433
289.435
289.444
289.469
289.481
289.431
289.434
289.442
289.46
289.463
289.437
289.44
289.445
289.457
289.456
289.456
289.458
289.459
289.462
289.457
289.501
289.498
289.492
289.485
289.476
289.584
289.57
289.554
289.535
289.516
289.669
289.649
289.628
289.606
289.581
289.736
289.715
289.694
289.673
289.651
290.244
290.257
290.269
290.276
290.282
290.233
290.251
290.267
290.277
290.285
290.222
290.246
290.266
290.276
290.283
290.212
290.243
290.269
290.199
290.235
290.266
290.181
290.223
290.258
290.158
290.204
290.244
290.127
290.177
290.221
290.086
290.137
290.186
290.033
290.082
290.136
290.012
290.06
289.93
289.963
289.948
289.936
289.845
289.86
289.856
289.854
289.769
289.775
289.779
289.788
289.711
289.714
289.723
289.743
289.665
289.669
289.684
289.722
289.628
289.634
289.659
289.726
289.597
289.607
289.648
289.756
289.998
289.57
289.586
289.645
289.808
290.183
289.548
289.569
289.646
289.869
290.403
289.528
289.552
289.643
289.917
290.607
289.51
289.535
289.629
289.921
290.703
289.495
289.515
289.597
289.851
290.563
289.481
289.496
289.553
289.717
290.101
289.47
289.48
289.519
289.625
289.847
289.461
289.467
289.496
289.57
289.724
289.454
289.458
289.479
289.534
289.651
289.448
289.45
289.466
289.509
289.601
289.442
289.443
289.456
289.49
289.564
289.436
289.438
289.448
289.475
289.538
289.431
289.433
289.441
289.466
289.526
289.426
289.429
289.438
289.464
289.498
289.422
289.426
289.436
289.46
289.476
289.421
289.425
289.434
289.454
289.458
289.423
289.427
289.435
289.449
289.445
289.431
289.436
289.441
289.448
289.441
289.452
289.457
289.457
289.457
289.446
289.494
289.498
289.494
289.482
289.467
289.574
289.57
289.557
289.533
289.509
289.672
289.655
289.633
289.606
289.575
289.739
289.718
289.696
289.672
289.644
290.253
290.269
290.283
290.292
290.298
290.242
290.264
290.283
290.294
290.303
290.232
290.261
290.284
290.295
290.303
290.222
290.258
290.289
290.208
290.251
290.286
290.189
290.237
290.277
290.164
290.216
290.261
290.13
290.185
290.235
290.086
290.144
290.197
290.031
290.085
290.142
289.964
290.011
290.061
289.922
289.959
289.951
289.944
289.834
289.854
289.858
289.862
289.765
289.776
289.786
289.799
289.709
289.718
289.732
289.756
289.663
289.673
289.692
289.735
289.625
289.637
289.666
289.738
289.593
289.608
289.65
289.762
289.565
289.584
289.641
289.801
290.188
289.541
289.563
289.634
289.842
290.371
289.519
289.543
289.622
289.864
290.517
289.5
289.523
289.599
289.844
290.543
289.483
289.502
289.565
289.766
290.358
289.468
289.482
289.526
289.649
289.952
289.456
289.467
289.496
289.573
289.738
289.446
289.454
289.476
289.529
289.638
289.438
289.445
289.462
289.501
289.584
289.432
289.437
289.451
289.482
289.549
289.427
289.431
289.443
289.468
289.524
289.423
289.427
289.436
289.458
289.507
289.419
289.424
289.432
289.452
289.498
289.417
289.422
289.43
289.451
289.472
289.417
289.421
289.43
289.448
289.454
289.418
289.423
289.43
289.444
289.44
289.423
289.428
289.433
289.441
289.429
289.434
289.44
289.442
289.443
289.429
289.456
289.465
289.462
289.454
289.437
289.498
289.508
289.501
289.483
289.461
289.569
289.575
289.565
289.535
289.505
289.671
289.66
289.641
289.608
289.569
289.739
289.72
289.697
289.67
289.636
290.263
290.283
290.298
290.308
290.315
290.252
290.279
290.301
290.313
290.322
290.243
290.277
290.305
290.317
290.324
290.233
290.276
290.311
290.22
290.269
290.309
290.2
290.254
290.299
290.173
290.231
290.28
290.138
290.198
290.252
290.092
290.154
290.213
290.034
290.096
290.157
289.966
290.021
290.073
289.889
289.927
289.969
289.967
289.962
289.845
289.867
289.876
289.883
289.778
289.795
289.808
289.823
289.724
289.739
289.755
289.781
289.678
289.694
289.715
289.759
289.64
289.657
289.686
289.759
289.606
289.625
289.666
289.775
289.576
289.598
289.651
289.802
289.549
289.573
289.636
289.825
290.329
289.525
289.549
289.617
289.828
290.426
289.503
289.526
289.589
289.792
290.404
289.483
289.503
289.553
289.712
290.203
289.467
289.482
289.517
289.611
289.848
289.453
289.465
289.489
289.546
289.669
289.442
289.452
289.47
289.509
289.588
289.433
289.442
289.456
289.486
289.546
289.426
289.434
289.446
289.47
289.52
289.421
289.428
289.438
289.459
289.502
289.418
289.424
289.433
289.451
289.49
289.417
289.422
289.429
289.446
289.479
289.416
289.421
289.428
289.443
289.453
289.418
289.422
289.429
289.44
289.436
289.421
289.426
289.43
289.437
289.425
289.428
289.433
289.435
289.435
289.417
289.44
289.447
289.445
289.439
289.419
289.461
289.474
289.469
289.454
289.43
289.498
289.516
289.511
289.485
289.457
289.561
289.577
289.572
289.538
289.501
289.655
289.659
289.645
289.611
289.564
289.734
289.719
289.697
289.667
289.625
290.275
290.297
290.315
290.326
290.334
290.264
290.296
290.32
290.334
290.344
290.256
290.296
290.328
290.341
290.348
290.248
290.297
290.337
290.235
290.29
290.335
290.215
290.276
290.325
290.188
290.251
290.304
290.152
290.218
290.274
290.105
290.173
290.234
290.047
290.114
290.181
289.98
290.04
290.096
289.904
289.95
289.993
289.995
289.992
289.837
289.872
289.898
289.91
289.917
289.808
289.83
289.844
289.859
289.755
289.775
289.792
289.818
289.71
289.73
289.752
289.795
289.671
289.691
289.721
289.791
289.635
289.657
289.697
289.801
289.602
289.627
289.677
289.816
289.572
289.598
289.656
289.826
289.545
289.57
289.63
289.815
290.359
289.519
289.543
289.597
289.77
290.307
289.496
289.517
289.559
289.69
290.103
289.476
289.493
289.522
289.597
289.787
289.46
289.474
289.494
289.538
289.633
289.446
289.458
289.474
289.504
289.564
289.436
289.446
289.459
289.483
289.528
289.428
289.437
289.448
289.468
289.506
289.423
289.431
289.44
289.457
289.492
289.42
289.426
289.434
289.449
289.481
289.419
289.424
289.431
289.444
289.467
289.42
289.424
289.429
289.438
289.439
289.422
289.426
289.429
289.434
289.423
289.427
289.43
289.431
289.431
289.413
289.434
289.439
289.437
289.431
289.407
289.446
289.454
289.448
289.437
289.411
289.464
289.481
289.474
289.453
289.425
289.495
289.52
289.518
289.485
289.453
289.546
289.576
289.577
289.539
289.497
289.627
289.65
289.646
289.61
289.557
289.717
289.712
289.694
289.659
289.611
290.287
290.312
290.333
290.345
290.353
290.278
290.314
290.343
290.357
290.367
290.272
290.318
290.355
290.367
290.374
290.265
290.321
290.367
290.253
290.316
290.366
290.235
290.301
290.355
290.208
290.277
290.334
290.172
290.244
290.304
290.126
290.2
290.264
290.07
290.143
290.212
290.005
290.072
290.132
289.934
289.986
290.031
290.036
290.033
289.87
289.913
289.943
289.956
289.962
289.816
289.853
289.879
289.894
289.907
289.803
289.826
289.843
289.867
289.758
289.781
289.802
289.844
289.717
289.741
289.77
289.837
289.68
289.705
289.742
289.841
289.644
289.671
289.717
289.849
289.61
289.638
289.691
289.849
289.578
289.605
289.66
289.827
289.548
289.573
289.622
289.774
290.255
289.52
289.543
289.58
289.692
290.051
289.496
289.515
289.541
289.602
289.759
289.475
289.492
289.51
289.545
289.618
289.458
289.473
289.487
289.51
289.555
289.445
289.458
289.47
289.488
289.522
289.435
289.446
289.457
289.473
289.502
289.429
289.438
289.447
289.461
289.488
289.425
289.432
289.44
289.452
289.476
289.424
289.429
289.435
289.444
289.459
289.425
289.428
289.432
289.436
289.428
289.428
289.43
289.431
289.43
289.412
289.433
289.435
289.433
289.427
289.404
289.442
289.444
289.438
289.427
289.399
289.453
289.461
289.451
289.434
289.404
289.47
289.487
289.479
289.452
289.42
289.494
289.524
289.522
289.485
289.449
289.531
289.573
289.579
289.539
289.493
289.593
289.635
289.643
289.605
289.549
289.674
289.695
289.687
289.645
289.595
290.3
290.329
290.352
290.365
290.374
290.294
290.335
290.367
290.383
290.392
290.29
290.342
290.384
290.397
290.403
290.286
290.349
290.4
290.276
290.345
290.401
290.259
290.332
290.39
290.234
290.309
290.37
290.2
290.277
290.34
290.156
290.235
290.301
290.104
290.182
290.252
290.043
290.116
290.179
289.976
290.036
290.083
290.089
290.085
289.918
289.97
290.003
290.015
290.019
289.867
289.914
289.943
289.957
289.967
289.822
289.865
289.892
289.908
289.929
289.822
289.847
289.867
289.906
289.78
289.806
289.833
289.898
289.74
289.768
289.804
289.899
289.701
289.73
289.774
289.9
289.662
289.693
289.743
289.891
289.625
289.655
289.706
289.861
289.589
289.617
289.662
289.8
289.555
289.58
289.615
289.714
290.035
289.525
289.547
289.57
289.622
289.754
289.499
289.518
289.535
289.562
289.619
289.477
289.494
289.508
289.526
289.558
289.46
289.475
289.487
289.501
289.524
289.447
289.46
289.47
289.482
289.504
289.438
289.448
289.458
289.469
289.489
289.432
289.44
289.448
289.458
289.476
289.43
289.436
289.441
289.447
289.454
289.43
289.434
289.436
289.435
289.421
289.434
289.435
289.433
289.427
289.404
289.44
289.44
289.434
289.423
289.396
289.45
289.449
289.439
289.423
289.392
289.464
289.467
289.452
289.431
289.398
289.479
289.494
289.481
289.449
289.414
289.497
289.53
289.525
289.483
289.444
289.52
289.571
289.58
289.536
289.488
289.556
289.619
289.637
289.594
289.538
289.608
289.667
289.671
289.626
289.577
290.314
290.347
290.373
290.387
290.396
290.311
290.357
290.394
290.411
290.42
290.311
290.369
290.417
290.429
290.435
290.31
290.38
290.437
290.302
290.378
290.44
290.288
290.368
290.431
290.265
290.347
290.411
290.234
290.318
290.383
290.195
290.279
290.347
290.147
290.231
290.302
290.092
290.171
290.236
290.032
290.1
290.148
290.154
290.148
289.98
290.04
290.076
290.087
290.087
289.933
289.99
290.021
290.033
290.04
289.89
289.944
289.973
289.987
290.005
289.849
289.902
289.93
289.948
289.985
289.86
289.889
289.913
289.975
289.817
289.848
289.881
289.973
289.774
289.807
289.849
289.969
289.731
289.764
289.812
289.953
289.687
289.72
289.769
289.915
289.643
289.676
289.718
289.847
289.602
289.632
289.664
289.753
289.564
289.59
289.612
289.655
289.768
289.531
289.554
289.57
289.591
289.633
289.503
289.524
289.537
289.549
289.57
289.48
289.498
289.51
289.52
289.534
289.462
289.478
289.489
289.498
289.512
289.449
289.462
289.472
289.48
289.495
289.441
289.451
289.458
289.466
289.478
289.436
289.443
289.448
289.451
289.451
289.436
289.439
289.44
289.436
289.416
289.439
289.439
289.436
289.425
289.398
289.447
289.443
289.435
289.42
289.389
289.458
289.453
289.44
289.42
289.386
289.475
289.472
289.452
289.427
289.392
289.493
289.502
289.481
289.446
289.409
289.511
289.538
289.524
289.479
289.439
289.527
289.576
289.576
289.528
289.481
289.545
289.614
289.625
289.577
289.527
289.569
289.648
289.65
289.604
289.56
290.33
290.367
290.395
290.411
290.42
290.33
290.382
290.424
290.441
290.451
290.334
290.4
290.453
290.466
290.471
290.337
290.414
290.478
290.333
290.417
290.484
290.322
290.408
290.476
290.303
290.391
290.459
290.277
290.366
290.433
290.243
290.332
290.4
290.201
290.29
290.361
290.154
290.239
290.303
290.101
290.177
290.226
290.232
290.223
290.056
290.126
290.164