/*--------------------------------*- C++ -*----------------------------------*\
| =========                 |                                                 |
| \\      /  F ield         | OpenFOAM: The Open Source CFD Toolbox           |
|  \\    /   O peration     | Version:  2.3.1                                 |
|   \\  /    A nd           | Web:      www.OpenFOAM.org                      |
|    \\/     M anipulation  |                                                 |
\*---------------------------------------------------------------------------*/
FoamFile
{
    version     2.0;
    format      ascii;
    class       volVectorField;
    location    "600";
    object      U;
}
// * * * * * * * * * * * * * * * * * * * * * * * * * * * * * * * * * * * * * //

dimensions      [0 1 -1 0 0 0 0];

internalField   nonuniform List<vector> 
6852
(
(-0.144426 -0.0132031 0.0336291)
(-0.177401 -0.0237413 0.0424773)
(-0.195988 -0.0366079 0.0489245)
(-0.199274 -0.0484407 0.0528777)
(-0.306055 -0.0650703 0.0463079)
(-0.330116 -0.101852 0.046148)
(-0.330439 -0.137406 0.0428014)
(-0.3116 -0.163761 0.0389326)
(-0.363594 -0.109623 0.0287704)
(-0.382238 -0.158272 0.0156799)
(-0.370175 -0.201015 0.000291109)
(-0.33643 -0.226795 -0.010761)
(-0.294051 -0.242231 -0.0177761)
(-0.41608 -0.0853103 -0.00596597)
(-0.425346 -0.12152 -0.0381902)
(-0.392847 -0.150779 -0.0713621)
(-0.3387 -0.164855 -0.0867093)
(-0.285883 -0.172404 -0.0939365)
(-0.439401 -0.0015501 -0.0381204)
(-0.435778 -0.0226051 -0.0705581)
(-0.388419 -0.0358144 -0.0968081)
(-0.328391 -0.038264 -0.0952338)
(-0.279413 -0.0400389 -0.0931076)
(-0.456575 0.0939205 -0.04253)
(-0.448455 0.0842647 -0.0737977)
(-0.395866 0.076367 -0.0984231)
(-0.332042 0.0727702 -0.0963221)
(-0.280833 0.0690899 -0.0968671)
(-0.460913 0.180155 -0.0329476)
(-0.45166 0.177478 -0.0618111)
(-0.398053 0.174292 -0.0857451)
(-0.333232 0.174142 -0.085173)
(-0.281237 0.173587 -0.08695)
(-0.457181 0.256624 -0.0246511)
(-0.449047 0.259637 -0.0533122)
(-0.395817 0.260842 -0.0782241)
(-0.330429 0.265359 -0.0788808)
(-0.27806 0.269278 -0.0811635)
(-0.446258 0.325754 -0.016761)
(-0.440205 0.335676 -0.0460764)
(-0.387799 0.342865 -0.0725552)
(-0.322187 0.352849 -0.0736977)
(-0.270402 0.361878 -0.0757255)
(-0.427136 0.386427 -0.0083621)
(-0.423604 0.404419 -0.038065)
(-0.373137 0.418645 -0.0658466)
(-0.308558 0.433858 -0.0670331)
(-0.258551 0.448042 -0.068227)
(-0.400151 0.439218 0.00105623)
(-0.399348 0.46831 -0.0280864)
(-0.352359 0.49357 -0.0570234)
(-0.290226 0.513585 -0.0588895)
(-0.242734 0.531987 -0.0589205)
(-0.362525 0.477341 0.0129892)
(-0.363171 0.516371 -0.0109666)
(-0.323412 0.552199 -0.0345909)
(-0.268916 0.576842 -0.0377166)
(-0.225307 0.598598 -0.0373875)
(-0.320207 0.496141 0.0232965)
(-0.32213 0.539715 0.00589704)
(-0.290039 0.58033 -0.0119792)
(-0.244187 0.608361 -0.0155298)
(-0.205304 0.632354 -0.0148093)
(-0.277021 0.499094 0.0301962)
(-0.280095 0.542445 0.0194312)
(-0.255116 0.583953 0.00699117)
(-0.217411 0.613192 0.00379895)
(-0.183683 0.637486 0.00476862)
(-0.235402 0.489636 0.0333348)
(-0.239594 0.530089 0.0274404)
(-0.220641 0.568988 0.0198723)
(-0.190074 0.597558 0.0173896)
(-0.161359 0.620647 0.0182922)
(-0.197018 0.472021 0.0331996)
(-0.202178 0.508261 0.0302948)
(-0.188141 0.543068 0.0260523)
(-0.163693 0.569556 0.024355)
(-0.139702 0.591028 0.0250152)
(-0.162663 0.449942 0.0308402)
(-0.168638 0.481546 0.0295597)
(-0.158641 0.512061 0.0272736)
(-0.139437 0.536003 0.0261481)
(-0.119745 0.555427 0.0266577)
(-0.132403 0.426185 0.0272618)
(-0.139105 0.453395 0.0267435)
(-0.132453 0.47985 0.0254664)
(-0.117646 0.501182 0.0247516)
(-0.101742 0.518545 0.0251299)
(-0.10587 0.402638 0.0232456)
(-0.113221 0.426032 0.0230354)
(-0.109346 0.449002 0.0221699)
(-0.0982236 0.467996 0.0216702)
(-0.0856254 0.483507 0.0219407)
(-0.0824683 0.380399 0.0193088)
(-0.0903492 0.400706 0.0192048)
(-0.0887957 0.420931 0.0184772)
(-0.0808039 0.438051 0.0180251)
(-0.0711275 0.452091 0.0181834)
(-0.0614977 0.35996 0.0157465)
(-0.0697488 0.377953 0.0156844)
(-0.0701275 0.396206 0.0149949)
(-0.0648415 0.412039 0.0145067)
(-0.0578076 0.425107 0.0145414)
(-0.0422291 0.341365 0.0126923)
(-0.0506429 0.357803 0.0126817)
(-0.0526001 0.374842 0.0120256)
(-0.0496798 0.390022 0.0114836)
(-0.0450964 0.402699 0.011407)
(-0.023939 0.324328 0.0101733)
(-0.0322665 0.33991 0.0102637)
(-0.0354564 0.356449 0.00969051)
(-0.0346028 0.371621 0.00913237)
(-0.0323392 0.384531 0.00898736)
(-0.00600959 0.308409 0.0081542)
(-0.0138838 0.323701 0.00841619)
(-0.0179431 0.340359 0.00801498)
(-0.018864 0.356117 0.00752483)
(-0.018827 0.369885 0.00738878)
(0.0122875 0.292856 0.00648803)
(0.00520345 0.308295 0.00705606)
(0.000624601 0.325642 0.00696237)
(-0.00175777 0.342582 0.00666974)
(-0.00383176 0.3578 0.00666881)
(0.0312604 0.277073 0.00511624)
(0.0255026 0.293001 0.00607023)
(0.0208944 0.311297 0.0064446)
(0.017422 0.329718 0.00654048)
(0.0133774 0.346882 0.00685361)
(0.0511634 0.260116 0.00401115)
(0.0473765 0.276706 0.0054058)
(0.0433479 0.296112 0.0063851)
(0.0392648 0.316217 0.00706493)
(0.0334424 0.335676 0.00793713)
(0.0720666 0.241078 0.00323392)
(0.0709527 0.258287 0.00505187)
(0.0682374 0.278684 0.00674485)
(0.0642158 0.300343 0.00821453)
(0.0569427 0.32212 0.00997699)
(0.093819 0.219019 0.00287184)
(0.096057 0.236568 0.00504417)
(0.095441 0.257555 0.00747966)
(0.0922984 0.280298 0.00988733)
(0.0839927 0.304089 0.0129154)
(0.116073 0.193064 0.00288525)
(0.122284 0.210312 0.00544583)
(0.124603 0.230979 0.00870902)
(0.123407 0.253632 0.0122753)
(0.114791 0.27814 0.0172522)
(0.137963 0.162643 0.0031044)
(0.148523 0.178609 0.00614489)
(0.154336 0.197603 0.0102771)
(0.155884 0.218503 0.0149889)
(0.147395 0.241896 0.0222239)
(0.158368 0.127663 0.00323228)
(0.173476 0.140941 0.00708522)
(0.183314 0.156299 0.0124123)
(0.18872 0.172855 0.0186637)
(0.181533 0.191354 0.0295735)
(0.175429 0.0887237 0.00230091)
(0.194716 0.0974059 0.00740708)
(0.208288 0.10647 0.01404)
(0.217103 0.115257 0.0214304)
(0.210562 0.123845 0.0350706)
(0.186566 0.0485501 -0.000798387)
(0.209058 0.0510356 0.00610335)
(0.225707 0.0527026 0.0146433)
(0.237701 0.0530954 0.023672)
(0.234965 0.0508272 0.0395852)
(0.189948 0.0111026 -0.00602254)
(0.215588 0.00424267 0.00155941)
(0.235903 -0.00610313 0.0109057)
(0.251835 -0.0212558 0.0202844)
(0.253424 -0.0459984 0.0353856)
(0.181225 -0.0223997 -0.0128644)
(0.208082 -0.0383732 -0.00755646)
(0.229203 -0.0583435 0.000135125)
(0.244778 -0.0833011 0.00768275)
(0.243365 -0.117246 0.0192725)
(0.16236 -0.0420356 -0.017923)
(0.190529 -0.0640043 -0.0163928)
(0.211265 -0.0921769 -0.0121285)
(0.224345 -0.123943 -0.00638404)
(0.218843 -0.164063 0.00323007)
(0.1346 -0.0573063 -0.0233782)
(0.166853 -0.0773219 -0.023974)
(0.190167 -0.104728 -0.0219384)
(0.201555 -0.137346 -0.0182474)
(0.193901 -0.173989 -0.0108742)
(0.103222 -0.0622903 -0.0332426)
(0.140357 -0.0786855 -0.0342508)
(0.168957 -0.0994611 -0.0321625)
(0.184487 -0.122522 -0.027656)
(0.179258 -0.147786 -0.0196684)
(0.0704146 -0.055189 -0.0465127)
(0.111185 -0.0656258 -0.0471217)
(0.143194 -0.0774741 -0.0439988)
(0.161807 -0.0890198 -0.0382155)
(0.160274 -0.0999029 -0.0304684)
(0.0336293 -0.0242963 -0.0512708)
(0.0688131 -0.0284807 -0.0504694)
(0.0954406 -0.0319402 -0.0458085)
(0.109425 -0.0337474 -0.0389302)
(0.1073 -0.0341234 -0.0313753)
(-0.220242 -0.000510243 0.115711)
(-0.259894 -0.0124213 0.130644)
(-0.279232 -0.0282467 0.139968)
(-0.278216 -0.0437165 0.145783)
(-0.360893 -0.0310336 0.115401)
(-0.380854 -0.0670269 0.108492)
(-0.377521 -0.104302 0.0968948)
(-0.354248 -0.134244 0.0873677)
(-0.392977 -0.056814 0.0546506)
(-0.40708 -0.104516 0.0168721)
(-0.389959 -0.148561 -0.0235164)
(-0.351836 -0.179307 -0.0484177)
(-0.403298 -0.00450738 -0.0577272)
(-0.406726 -0.0471388 -0.130507)
(-0.368585 -0.0891 -0.209093)
(-0.310002 -0.114761 -0.240023)
(-0.260927 -0.130743 -0.253223)
(-0.412031 0.0671556 -0.114381)
(-0.408981 0.0380957 -0.188069)
(-0.357949 0.0127297 -0.253224)
(-0.296267 0.00492004 -0.247414)
(-0.253716 -0.000399992 -0.242527)
(-0.43038 0.139286 -0.123422)
(-0.424421 0.115799 -0.192591)
(-0.36924 0.0972479 -0.252217)
(-0.304417 0.0941055 -0.242504)
(-0.258948 0.0902916 -0.240402)
(-0.439734 0.219336 -0.11355)
(-0.431494 0.201255 -0.177865)
(-0.374478 0.187415 -0.234804)
(-0.308058 0.188409 -0.227645)
(-0.261031 0.188223 -0.228076)
(-0.442652 0.29362 -0.102392)
(-0.433475 0.27783 -0.166233)
(-0.375174 0.266103 -0.22486)
(-0.307101 0.271809 -0.220016)
(-0.259283 0.27642 -0.221521)
(-0.438193 0.366349 -0.0912772)
(-0.429004 0.3546 -0.157173)
(-0.369749 0.346661 -0.219483)
(-0.300421 0.357029 -0.215125)
(-0.253003 0.366904 -0.21599)
(-0.424949 0.434414 -0.0787585)
(-0.416024 0.427635 -0.146751)
(-0.357214 0.42387 -0.212798)
(-0.28847 0.438584 -0.208036)
(-0.242772 0.454232 -0.207026)
(-0.403879 0.498777 -0.0635008)
(-0.39527 0.501774 -0.132132)
(-0.338812 0.509807 -0.202511)
(-0.27251 0.528403 -0.199462)
(-0.228913 0.549167 -0.195699)
(-0.37392 0.55256 -0.0398032)
(-0.362528 0.564858 -0.0980378)
(-0.313947 0.585781 -0.152762)
(-0.257809 0.609166 -0.154084)
(-0.216877 0.634305 -0.150315)
(-0.343573 0.591371 -0.015768)
(-0.330079 0.607751 -0.0635261)
(-0.288993 0.632912 -0.104268)
(-0.241713 0.660461 -0.107465)
(-0.203846 0.689093 -0.103031)
(-0.314734 0.618621 0.00566591)
(-0.300475 0.63805 -0.0333112)
(-0.265616 0.664279 -0.0634159)
(-0.225478 0.693722 -0.0665609)
(-0.191182 0.723652 -0.0613779)
(-0.286991 0.636108 0.0224903)
(-0.274518 0.658048 -0.00904064)
(-0.244843 0.684729 -0.0324713)
(-0.210364 0.714165 -0.0352824)
(-0.179552 0.743928 -0.02996)
(-0.260865 0.646148 0.0344447)
(-0.251651 0.670328 0.00884354)
(-0.226265 0.697121 -0.0102711)
(-0.196353 0.725834 -0.0130477)
(-0.168607 0.754239 -0.00799894)
(-0.236458 0.650678 0.0420787)
(-0.230358 0.676484 0.0210565)
(-0.209173 0.703505 0.00499999)
(-0.183017 0.731095 0.00193041)
(-0.158029 0.757748 0.00633114)
(-0.213531 0.651087 0.0462215)
(-0.210182 0.678081 0.0287599)
(-0.193105 0.705603 0.0150629)
(-0.170095 0.731959 0.011393)
(-0.147569 0.756608 0.0148288)
(-0.191812 0.648495 0.0478381)
(-0.190919 0.676428 0.0330864)
(-0.177248 0.704152 0.0210624)
(-0.157266 0.729657 0.0168101)
(-0.136977 0.752369 0.019055)
(-0.171048 0.643757 0.0477572)
(-0.172274 0.672487 0.0351062)
(-0.16161 0.7005 0.0242623)
(-0.144443 0.725416 0.0194544)
(-0.126414 0.746719 0.0204738)
(-0.150971 0.637476 0.046636)
(-0.15398 0.666962 0.0356996)
(-0.146029 0.695462 0.0257581)
(-0.131555 0.720232 0.0204773)
(-0.115825 0.740724 0.0203144)
(-0.131272 0.63 0.0449842)
(-0.135731 0.660289 0.0355456)
(-0.130233 0.689545 0.026397)
(-0.118356 0.714671 0.0208086)
(-0.104972 0.735005 0.019585)
(-0.111591 0.621436 0.043188)
(-0.11716 0.652614 0.0351861)
(-0.113844 0.682927 0.0268315)
(-0.10447 0.708935 0.0211486)
(-0.0934842 0.729773 0.0191071)
(-0.0915461 0.61168 0.0415188)
(-0.0978458 0.643822 0.0349933)
(-0.0964058 0.675471 0.0275551)
(-0.0894209 0.70286 0.0220289)
(-0.0808815 0.724834 0.0195496)
(-0.0707172 0.60045 0.0400941)
(-0.0773435 0.633565 0.0351915)
(-0.0774254 0.666759 0.02894)
(-0.0726429 0.695946 0.0238926)
(-0.0665759 0.719631 0.0214311)
(-0.0486892 0.587265 0.0389889)
(-0.0551748 0.621269 0.0358985)
(-0.0563525 0.656083 0.0312346)
(-0.0534885 0.687337 0.0271737)
(-0.0498682 0.713185 0.025325)
(-0.0251193 0.571568 0.0382605)
(-0.0308872 0.60616 0.037197)
(-0.0326315 0.642465 0.0345977)
(-0.0312585 0.67583 0.0321869)
(-0.0299838 0.70411 0.031819)
(0.000207019 0.552579 0.0379009)
(-0.00415068 0.5873 0.0391054)
(-0.00576094 0.624618 0.0391397)
(-0.00520712 0.659715 0.0392252)
(-0.00601274 0.69028 0.0416569)
(0.0273002 0.530027 0.037785)
(0.0251822 0.563747 0.0414759)
(0.0245208 0.601106 0.0447884)
(0.0251063 0.637013 0.048355)
(0.022596 0.669163 0.0552449)
(0.0559655 0.503349 0.0378228)
(0.0570191 0.534667 0.0441917)
(0.0583365 0.570284 0.0515114)
(0.0602828 0.605005 0.0598184)
(0.0569243 0.636529 0.0738332)
(0.0855256 0.472229 0.0377186)
(0.0905654 0.499493 0.0467961)
(0.0947296 0.531108 0.0585557)
(0.0991788 0.56209 0.0723256)
(0.0953855 0.590272 0.0955235)
(0.115123 0.436558 0.0370953)
(0.124947 0.457926 0.0489235)
(0.133062 0.48244 0.0656657)
(0.142038 0.505619 0.0861246)
(0.139592 0.52419 0.123105)
(0.143371 0.396689 0.0349895)
(0.158061 0.410622 0.0491364)
(0.170222 0.424888 0.0699832)
(0.18359 0.43606 0.0955094)
(0.181771 0.438003 0.143118)
(0.168965 0.353504 0.0303962)
(0.188197 0.359838 0.0463874)
(0.20426 0.36256 0.0701172)
(0.221649 0.360237 0.0989539)
(0.222071 0.343895 0.152275)
(0.190637 0.307056 0.0225702)
(0.214798 0.307104 0.0395209)
(0.235277 0.298596 0.0643185)
(0.257075 0.281745 0.0942971)
(0.262261 0.244658 0.148177)
(0.204783 0.256522 0.010563)
(0.234976 0.25269 0.0268006)
(0.26005 0.234433 0.0502315)
(0.284825 0.203741 0.0782284)
(0.292788 0.147309 0.126065)
(0.20603 0.19973 -0.00565709)
(0.242635 0.194559 0.00771747)
(0.273609 0.171254 0.027776)
(0.301021 0.129282 0.0519019)
(0.310769 0.0557605 0.0901035)
(0.192413 0.145054 -0.0242267)
(0.232928 0.134119 -0.0169065)
(0.267922 0.107022 -0.00399404)
(0.296634 0.0640861 0.0121009)
(0.305229 -0.00812115 0.030947)
(0.165027 0.0967775 -0.0458358)
(0.20961 0.0851531 -0.0446277)
(0.248115 0.0582257 -0.0391093)
(0.277689 0.0174871 -0.0313194)
(0.285135 -0.038976 -0.0219737)
(0.125872 0.0491191 -0.0743319)
(0.176245 0.0389477 -0.0772753)
(0.220086 0.019744 -0.0761109)
(0.251823 -0.00592461 -0.072691)
(0.261988 -0.0376042 -0.0640703)
(0.0688726 0.0178861 -0.112128)
(0.122719 0.0112906 -0.115076)
(0.167236 0.00221938 -0.111712)
(0.198178 -0.00765349 -0.10234)
(0.20871 -0.0184673 -0.086847)
(-0.219076 0.0215355 0.156439)
(-0.258469 0.015114 0.177229)
(-0.280052 0.00444927 0.192169)
(-0.283318 -0.00831922 0.202579)
(-0.338197 0.0425053 0.155822)
(-0.364135 0.0153172 0.149895)
(-0.366698 -0.0195165 0.130934)
(-0.348077 -0.0526594 0.11273)
(-0.343605 0.0617749 0.059389)
(-0.364597 0.0129471 0.00865019)
(-0.356897 -0.0456866 -0.0517214)
(-0.326886 -0.0915171 -0.0911434)
(-0.323289 0.110837 -0.0896082)
(-0.344621 0.0575949 -0.204427)
(-0.3114 -0.0116076 -0.340021)
(-0.248744 -0.0552396 -0.386623)
(-0.325253 0.145267 -0.153847)
(-0.34613 0.0965395 -0.270683)
(-0.299287 0.0512032 -0.395779)
(-0.23495 0.0369694 -0.387961)
(-0.205109 0.0266601 -0.383254)
(-0.338414 0.191663 -0.174034)
(-0.361531 0.143092 -0.28528)
(-0.312972 0.10177 -0.397422)
(-0.247157 0.0984149 -0.37817)
(-0.21329 0.0931859 -0.374753)
(-0.343725 0.250283 -0.169265)
(-0.366597 0.206803 -0.272795)
(-0.317282 0.173125 -0.378071)
(-0.251128 0.176711 -0.360052)
(-0.215585 0.176656 -0.35937)
(-0.343757 0.308197 -0.158653)
(-0.367407 0.265143 -0.26027)
(-0.317402 0.232325 -0.366416)
(-0.249753 0.24198 -0.35051)
(-0.21358 0.247831 -0.350825)
(-0.335745 0.369561 -0.146744)
(-0.361115 0.330456 -0.251352)
(-0.310674 0.301318 -0.362965)
(-0.241758 0.314732 -0.346339)
(-0.206475 0.326264 -0.345134)
(-0.316785 0.428591 -0.131789)
(-0.3434 0.394135 -0.239728)
(-0.295021 0.366909 -0.35857)
(-0.227934 0.383464 -0.340483)
(-0.19511 0.401772 -0.336332)
(-0.287683 0.484811 -0.112171)
(-0.314177 0.46284 -0.220026)
(-0.271035 0.453234 -0.350369)
(-0.209296 0.471136 -0.336196)
(-0.178958 0.495685 -0.327528)
(-0.248836 0.527457 -0.0799511)
(-0.264784 0.515362 -0.166053)
(-0.233899 0.526492 -0.258221)
(-0.193386 0.549668 -0.256728)
(-0.166122 0.579832 -0.250564)
(-0.215777 0.553785 -0.0483475)
(-0.223158 0.542196 -0.116325)
(-0.200909 0.554516 -0.17873)
(-0.173717 0.582647 -0.181726)
(-0.149568 0.616942 -0.175179)
(-0.189252 0.572369 -0.0210058)
(-0.190251 0.560752 -0.0758758)
(-0.17333 0.571417 -0.118271)
(-0.154147 0.600841 -0.120857)
(-0.134001 0.635764 -0.113021)
(-0.17056 0.586868 0.00116628)
(-0.16589 0.574585 -0.0452784)
(-0.152604 0.582539 -0.0761508)
(-0.137987 0.610455 -0.0779754)
(-0.121328 0.644092 -0.0695711)
(-0.154921 0.599078 0.0180281)
(-0.148221 0.586526 -0.0229457)
(-0.137245 0.592559 -0.0476797)
(-0.125295 0.617976 -0.0492738)
(-0.111232 0.649748 -0.040814)
(-0.141666 0.610182 0.0300497)
(-0.135941 0.599042 -0.00666949)
(-0.125676 0.603339 -0.0286213)
(-0.115382 0.62604 -0.0306355)
(-0.103187 0.655718 -0.0227308)
(-0.130101 0.620688 0.0381024)
(-0.12693 0.612035 0.00504832)
(-0.116414 0.614904 -0.0158733)
(-0.107426 0.635255 -0.0189132)
(-0.096735 0.663002 -0.012067)
(-0.119379 0.630554 0.0430632)
(-0.118281 0.624547 0.0132093)
(-0.108823 0.627532 -0.00708343)
(-0.10068 0.6458 -0.0116563)
(-0.0914116 0.67183 -0.00628908)
(-0.108791 0.639499 0.0458862)
(-0.10938 0.636406 0.0188392)
(-0.101688 0.640484 -0.00100801)
(-0.0942831 0.657275 -0.00721746)
(-0.0862868 0.681604 -0.00363255)
(-0.0978428 0.647296 0.047384)
(-0.0998437 0.647383 0.022896)
(-0.0942213 0.653314 0.00349068)
(-0.0874711 0.669198 -0.00433805)
(-0.0807233 0.692075 -0.0026116)
(-0.0861836 0.65377 0.0481956)
(-0.0893257 0.657272 0.0261653)
(-0.0858168 0.665608 0.00738328)
(-0.0797136 0.68126 -0.0019175)
(-0.0742682 0.703159 -0.00198812)
(-0.0734923 0.658713 0.0487887)
(-0.077458 0.665779 0.0292083)
(-0.0755757 0.676751 0.011373)
(-0.0706534 0.693234 0.00101926)
(-0.0665286 0.714857 -0.000693164)
(-0.0595217 0.661851 0.0494937)
(-0.0639263 0.672549 0.0324859)
(-0.063338 0.686556 0.0160355)
(-0.0600437 0.704941 0.00529554)
(-0.0571771 0.727089 0.00226925)
(-0.0440462 0.662849 0.0505039)
(-0.0484214 0.67718 0.0363466)
(-0.0487875 0.694623 0.021762)
(-0.0469522 0.715584 0.0114383)
(-0.045734 0.73954 0.00787471)
(-0.0268563 0.661294 0.051918)
(-0.0306421 0.679152 0.0409907)
(-0.0314699 0.700324 0.0289213)
(-0.0307517 0.724536 0.0198915)
(-0.0311482 0.751267 0.0168507)
(-0.00779501 0.656728 0.0537423)
(-0.0103384 0.677821 0.0464853)
(-0.0109712 0.702841 0.0377702)
(-0.010777 0.730845 0.0311548)
(-0.0126287 0.761492 0.0300769)
(0.0132432 0.64864 0.0557921)
(0.0127077 0.672421 0.0527325)
(0.0131135 0.701061 0.0484568)
(0.0137793 0.732916 0.045768)
(0.0109602 0.768167 0.0488199)
(0.0362272 0.636652 0.0577692)
(0.0385134 0.662221 0.0593961)
(0.0408991 0.693817 0.0607578)
(0.0433635 0.729173 0.0637267)
(0.0402707 0.769684 0.0737109)
(0.0610453 0.62019 0.0594397)
(0.067133 0.646152 0.0661314)
(0.072737 0.679142 0.074463)
(0.0792741 0.716205 0.085289)
(0.0776034 0.760371 0.106901)
(0.0871047 0.598918 0.0602811)
(0.0978029 0.623579 0.072008)
(0.107473 0.655814 0.0880395)
(0.119914 0.692231 0.107868)
(0.12026 0.738674 0.144479)
(0.113788 0.572489 0.0597829)
(0.130144 0.5937 0.0763333)
(0.145393 0.62141 0.100927)
(0.168072 0.651806 0.131856)
(0.174557 0.690679 0.192281)
(0.139488 0.540938 0.0568559)
(0.161407 0.556701 0.0768502)
(0.181654 0.575533 0.10804)
(0.212947 0.593754 0.146828)
(0.222363 0.611625 0.224151)
(0.162857 0.505026 0.0509749)
(0.189867 0.514767 0.0725615)
(0.214619 0.522765 0.107462)
(0.252134 0.526933 0.150827)
(0.264559 0.520444 0.236918)
(0.182807 0.465068 0.0422236)
(0.21477 0.469293 0.0632125)
(0.24441 0.466196 0.0984109)
(0.28718 0.455537 0.142905)
(0.305595 0.423668 0.230126)
(0.197458 0.420585 0.0308755)
(0.234114 0.420468 0.0490504)
(0.268627 0.40737 0.080637)
(0.31489 0.382124 0.121696)
(0.339859 0.325708 0.200677)
(0.204321 0.370856 0.01689)
(0.24549 0.367558 0.03132)
(0.284635 0.346366 0.0569067)
(0.332663 0.307921 0.0909942)
(0.362583 0.228411 0.155031)
(0.19971 0.312513 -0.00122059)
(0.244828 0.309389 0.00869879)
(0.287111 0.285403 0.0263273)
(0.331659 0.241026 0.0489353)
(0.356826 0.155161 0.084484)
(0.18122 0.245413 -0.0236482)
(0.230932 0.241309 -0.0193837)
(0.277351 0.219011 -0.00962754)
(0.321018 0.180506 0.00416228)
(0.345467 0.113006 0.0243369)
(0.147602 0.163095 -0.0517157)
(0.203161 0.157976 -0.0529101)
(0.253988 0.139671 -0.0503729)
(0.297011 0.109645 -0.0452119)
(0.319612 0.0618343 -0.0371045)
(0.0885764 0.0774137 -0.0897597)
(0.15033 0.0715376 -0.0944328)
(0.204056 0.0598846 -0.0947385)
(0.245655 0.0438486 -0.0909284)
(0.264964 0.0228329 -0.0814974)
(-0.200986 0.0398355 0.146267)
(-0.240924 0.0368073 0.165366)
(-0.262417 0.0288959 0.18046)
(-0.266002 0.020651 0.195361)
(-0.293925 0.112272 0.141031)
(-0.328815 0.0978555 0.137681)
(-0.340172 0.0732907 0.127218)
(-0.330365 0.0524083 0.122021)
(-0.294296 0.18371 0.052108)
(-0.330262 0.147927 0.00927334)
(-0.332573 0.0798677 -0.0462455)
(-0.3075 0.0261675 -0.0825322)
(-0.262451 0.22379 -0.0744709)
(-0.303299 0.159138 -0.205616)
(-0.266393 0.0588478 -0.413969)
(-0.188844 0.00528947 -0.482148)
(-0.244704 0.240613 -0.139895)
(-0.293359 0.166001 -0.290597)
(-0.248136 0.0892821 -0.495371)
(-0.177502 0.0672866 -0.488176)
(-0.24008 0.261823 -0.167412)
(-0.301345 0.17725 -0.318005)
(-0.261026 0.0999164 -0.508429)
(-0.191845 0.0961399 -0.480415)
(-0.170065 0.0891513 -0.477345)
(-0.230281 0.298118 -0.170131)
(-0.299601 0.216283 -0.312548)
(-0.263203 0.150015 -0.495157)
(-0.195516 0.156462 -0.463635)
(-0.171801 0.156018 -0.462142)
(-0.217216 0.339899 -0.165324)
(-0.295216 0.255377 -0.304231)
(-0.261862 0.187839 -0.488057)
(-0.193412 0.202452 -0.455463)
(-0.169483 0.208896 -0.454022)
(-0.195789 0.391436 -0.157596)
(-0.283811 0.309859 -0.299483)
(-0.253244 0.246446 -0.491886)
(-0.183995 0.263056 -0.455109)
(-0.161914 0.274908 -0.450879)
(-0.160758 0.443974 -0.144531)
(-0.256566 0.366082 -0.288728)
(-0.233474 0.29938 -0.49417)
(-0.168438 0.318206 -0.453682)
(-0.150199 0.338068 -0.446134)
(-0.111986 0.492882 -0.122211)
(-0.208147 0.431701 -0.261748)
(-0.198707 0.390097 -0.492135)
(-0.145015 0.404613 -0.462892)
(-0.131244 0.432338 -0.449877)
(-0.0549362 0.525024 -0.0844532)
(-0.125554 0.472379 -0.184285)
(-0.133123 0.463329 -0.322889)
(-0.124689 0.483477 -0.323935)
(-0.116419 0.519345 -0.32166)
(-0.0121955 0.541202 -0.0517595)
(-0.0638974 0.481979 -0.12411)
(-0.0802545 0.462963 -0.208203)
(-0.09263 0.483433 -0.215686)
(-0.0885661 0.520402 -0.212269)
(0.0188743 0.554564 -0.024212)
(-0.0196456 0.490062 -0.0808656)
(-0.038827 0.462344 -0.131263)
(-0.0604213 0.477894 -0.135179)
(-0.0629686 0.510795 -0.128246)
(0.0398996 0.565213 -0.00387895)
(0.0105124 0.500785 -0.0507646)
(-0.0107663 0.463248 -0.0840444)
(-0.035914 0.471063 -0.0853741)
(-0.0436811 0.49778 -0.0776118)
(0.0511403 0.575711 0.0111125)
(0.0295205 0.513505 -0.0309942)
(0.0082923 0.470708 -0.055439)
(-0.017992 0.471024 -0.0557999)
(-0.0288225 0.492229 -0.047978)
(0.0562483 0.586687 0.0221875)
(0.0412986 0.52829 -0.0175956)
(0.0210995 0.483889 -0.0382462)
(-0.00481692 0.477945 -0.0385216)
(-0.0177861 0.494101 -0.031039)
(0.0581029 0.59801 0.0303998)
(0.0487077 0.544381 -0.00799324)
(0.0299773 0.500836 -0.0278512)
(0.00531227 0.490323 -0.0287203)
(-0.00938431 0.502157 -0.0219054)
(0.0586482 0.609437 0.0363651)
(0.0525844 0.561514 -0.000507035)
(0.0367161 0.519905 -0.0211289)
(0.0135876 0.506611 -0.0232588)
(-0.0022194 0.51489 -0.0175467)
(0.0590882 0.620749 0.040611)
(0.0554809 0.578802 0.00567512)
(0.0426151 0.539897 -0.0160985)
(0.0211398 0.525355 -0.0200529)
(0.00471024 0.530977 -0.0158251)
(0.0601826 0.631571 0.043683)
(0.0585173 0.595604 0.0110889)
(0.0485735 0.560088 -0.0116732)
(0.0287993 0.545498 -0.017765)
(0.0120199 0.549434 -0.0152594)
(0.062391 0.641541 0.0460557)
(0.0624477 0.611427 0.0161897)
(0.0551549 0.579983 -0.00709369)
(0.0371588 0.566367 -0.0154437)
(0.020203 0.569557 -0.0147919)
(0.0659519 0.65033 0.0481076)
(0.0677295 0.625959 0.0213266)
(0.0622306 0.599516 -0.00172648)
(0.0466924 0.587538 -0.0122448)
(0.0297127 0.590943 -0.0135287)
(0.0710605 0.657622 0.0501288)
(0.0746271 0.639019 0.0267448)
(0.0706281 0.618143 0.00487868)
(0.0579015 0.608589 -0.00732427)
(0.0410468 0.613466 -0.0105144)
(0.0779004 0.663085 0.0523002)
(0.0833106 0.650286 0.0326122)
(0.0812922 0.635419 0.0129621)
(0.0704943 0.6298 0.000195693)
(0.054513 0.637244 -0.00457655)
(0.0865974 0.666356 0.0547152)
(0.0940417 0.659307 0.0391032)
(0.0943564 0.65098 0.0225834)
(0.0858265 0.650499 0.0107225)
(0.0705348 0.662409 0.00560316)
(0.097222 0.667048 0.0573668)
(0.107052 0.665591 0.0462724)
(0.110141 0.664209 0.0338727)
(0.104607 0.670083 0.0245707)
(0.0906253 0.688427 0.0211393)
(0.109823 0.664683 0.0601384)
(0.122561 0.668467 0.0540859)
(0.129067 0.6741 0.0470651)
(0.127702 0.687109 0.042419)
(0.11603 0.713844 0.0438251)
(0.124332 0.658738 0.0627905)
(0.140593 0.667229 0.0622794)
(0.1512 0.679721 0.0620273)
(0.155508 0.70042 0.0643617)
(0.147128 0.738327 0.0747275)
(0.140665 0.648484 0.0650857)
(0.16139 0.660631 0.0706118)
(0.177273 0.678757 0.0789272)
(0.190434 0.70564 0.0915673)
(0.187939 0.754031 0.118863)
(0.158113 0.633369 0.066418)
(0.183945 0.647881 0.0779788)
(0.205438 0.670062 0.0959135)
(0.22938 0.701593 0.120616)
(0.232161 0.762708 0.170764)
(0.176215 0.612576 0.0663233)
(0.208417 0.62733 0.0838318)
(0.237363 0.649251 0.113286)
(0.28003 0.678482 0.154747)
(0.295117 0.737067 0.250118)
(0.19286 0.585749 0.0635119)
(0.230508 0.598565 0.0851064)
(0.264499 0.614828 0.123087)
(0.319812 0.633734 0.175763)
(0.337972 0.668462 0.300649)
(0.206856 0.553665 0.0575334)
(0.248824 0.56404 0.0808842)
(0.286649 0.572905 0.123283)
(0.349522 0.580772 0.182128)
(0.371182 0.58972 0.320904)
(0.217395 0.516515 0.0486004)
(0.263121 0.524536 0.0712539)
(0.305028 0.525513 0.113708)
(0.373223 0.521551 0.173721)
(0.402154 0.50362 0.313459)
(0.22282 0.473959 0.0373188)
(0.271678 0.479874 0.056802)
(0.317421 0.473347 0.0947052)
(0.387726 0.457262 0.149769)
(0.424815 0.412815 0.2766)
(0.221297 0.425229 0.025122)
(0.272891 0.42915 0.0396684)
(0.322342 0.415728 0.069619)
(0.392641 0.387126 0.114776)
(0.437226 0.313988 0.218252)
(0.210089 0.36911 0.0131352)
(0.263076 0.371848 0.0217419)
(0.313359 0.354961 0.0403334)
(0.373673 0.320073 0.0679563)
(0.411334 0.235886 0.121474)
(0.187784 0.302141 0.00278859)
(0.243425 0.304767 0.00685578)
(0.296537 0.289771 0.0165626)
(0.352419 0.258689 0.0314617)
(0.389662 0.192175 0.0590545)
(0.152206 0.212132 -0.0058776)
(0.212025 0.212452 -0.00586457)
(0.268375 0.199999 -0.00340606)
(0.321368 0.176273 0.00164919)
(0.356 0.130113 0.0123907)
(0.0914235 0.110655 -0.00736576)
(0.157124 0.107233 -0.0108363)
(0.216487 0.0976356 -0.0134767)
(0.267225 0.0830957 -0.0144885)
(0.297507 0.0598799 -0.0109754)
(-0.170242 0.0529303 0.0965224)
(-0.21374 0.0523458 0.107804)
(-0.23702 0.04528 0.115634)
(-0.24109 0.0406259 0.126281)
(-0.24225 0.157187 0.0910292)
(-0.28876 0.150268 0.0869649)
(-0.306857 0.127297 0.0756081)
(-0.298778 0.115999 0.0729733)
(-0.246293 0.255102 0.030135)
(-0.303128 0.224775 0.00185581)
(-0.31106 0.149279 -0.0444363)
(-0.284513 0.10905 -0.0600259)
(-0.199614 0.306268 -0.0551997)
(-0.270555 0.233339 -0.175398)
(-0.225508 0.0896491 -0.473431)
(-0.135411 0.040935 -0.525217)
(-0.153316 0.322271 -0.100711)
(-0.243111 0.224641 -0.249924)
(-0.20024 0.113681 -0.569375)
(-0.125597 0.0930759 -0.552582)
(-0.118458 0.329559 -0.121335)
(-0.235705 0.207515 -0.277902)
(-0.210208 0.0869743 -0.591062)
(-0.139384 0.0868371 -0.553004)
(-0.0801914 0.349925 -0.123997)
(-0.218283 0.226036 -0.276817)
(-0.208526 0.119668 -0.588007)
(-0.141439 0.130232 -0.543129)
(-0.130228 0.129683 -0.539407)
(-0.0409041 0.379843 -0.11974)
(-0.200841 0.250233 -0.272028)
(-0.204111 0.138478 -0.5887)
(-0.137539 0.158343 -0.539793)
(-0.127646 0.165205 -0.534684)
(0.0094499 0.428814 -0.104904)
(-0.177407 0.295842 -0.268991)
(-0.192434 0.188191 -0.601098)
(-0.125836 0.208101 -0.546119)
(-0.120177 0.218954 -0.537387)
(0.0762861 0.488414 -0.0782785)
(-0.132371 0.346545 -0.256893)
(-0.167579 0.225939 -0.610707)
(-0.107739 0.249985 -0.55064)
(-0.109281 0.270586 -0.539788)
(0.1437 0.541488 -0.0502607)
(-0.0452869 0.417589 -0.211609)
(-0.11573 0.321504 -0.61263)
(-0.0759646 0.330441 -0.580107)
(-0.0879809 0.358744 -0.566672)
(0.20366 0.569946 -0.019619)
(0.091245 0.462989 -0.110682)
(0.00817185 0.400916 -0.291036)
(-0.0436486 0.406548 -0.307165)
(-0.0711408 0.44661 -0.321178)
(0.240009 0.576455 -0.00162687)
(0.172983 0.477317 -0.0590141)
(0.0940273 0.377659 -0.146098)
(0.0204722 0.352297 -0.167251)
(-0.0108889 0.370491 -0.180025)
(0.261306 0.578361 0.00854428)
(0.224316 0.49455 -0.0293131)
(0.160238 0.392003 -0.0712996)
(0.0861229 0.341244 -0.0813136)
(0.0444945 0.335594 -0.0847567)
(0.269726 0.578831 0.0139969)
(0.251259 0.509051 -0.0132545)
(0.20114 0.412138 -0.035312)
(0.132945 0.341945 -0.0386415)
(0.0816557 0.308588 -0.0361039)
(0.268376 0.579734 0.0167961)
(0.262023 0.522004 -0.00497055)
(0.224008 0.436351 -0.0187147)
(0.165753 0.36179 -0.0192304)
(0.112264 0.312395 -0.0138726)
(0.261758 0.582253 0.0183807)
(0.263361 0.533989 -0.0007715)
(0.234931 0.460835 -0.0111534)
(0.186768 0.389802 -0.0111406)
(0.135928 0.334027 -0.00584562)
(0.252625 0.586318 0.0193857)
(0.259602 0.545089 0.00131211)
(0.238339 0.483307 -0.00783235)
(0.198666 0.419042 -0.00815871)
(0.15219 0.363425 -0.00376306)
(0.242676 0.591508 0.0201694)
(0.253344 0.555528 0.00238588)
(0.237484 0.50338 -0.00653183)
(0.204379 0.446881 -0.00747919)
(0.162328 0.395089 -0.00409738)
(0.232996 0.597382 0.0208371)
(0.245918 0.565549 0.0031144)
(0.234574 0.521271 -0.0060494)
(0.206492 0.472485 -0.00772697)
(0.168387 0.42621 -0.00530115)
(0.224295 0.603487 0.0215039)
(0.238821 0.575267 0.00391235)
(0.231275 0.537387 -0.00572252)
(0.207131 0.495837 -0.00817081)
(0.172351 0.455777 -0.00665579)
(0.217044 0.609338 0.0223158)
(0.232953 0.58468 0.0050917)
(0.22882 0.552183 -0.00510304)
(0.207949 0.517317 -0.00832445)
(0.175943 0.483744 -0.007671)
(0.211564 0.614493 0.0234371)
(0.228901 0.593666 0.00697631)
(0.228149 0.566052 -0.00374926)
(0.210271 0.537475 -0.00776999)
(0.18067 0.510544 -0.00787859)
(0.208019 0.618531 0.0250292)
(0.227092 0.602115 0.00989748)
(0.229851 0.579335 -0.00114226)
(0.21522 0.556895 -0.00597619)
(0.187932 0.53685 -0.00671491)
(0.206514 0.621052 0.0272032)
(0.22766 0.608988 0.0139559)
(0.233996 0.592154 0.00329964)
(0.223716 0.576015 -0.00212243)
(0.199118 0.563598 -0.00333184)
(0.207196 0.621661 0.0299711)
(0.230737 0.614095 0.0191674)
(0.240952 0.603694 0.00989529)
(0.235604 0.594894 0.00472824)
(0.214941 0.590869 0.00360945)
(0.210146 0.619965 0.0332411)
(0.236545 0.617163 0.025475)
(0.251058 0.613391 0.0186395)
(0.251413 0.612784 0.0149609)
(0.235613 0.619774 0.0151588)
(0.215436 0.615455 0.036833)
(0.245457 0.617647 0.032742)