/*--------------------------------*- C++ -*----------------------------------*\
| =========                 |                                                 |
| \\      /  F ield         | OpenFOAM: The Open Source CFD Toolbox           |
|  \\    /   O peration     | Version:  2.3.1                                 |
|   \\  /    A nd           | Web:      www.OpenFOAM.org                      |
|    \\/     M anipulation  |                                                 |
\*---------------------------------------------------------------------------*/
FoamFile
{
    version     2.0;
    format      ascii;
    class       volScalarField;
    location    "2";
    object      T;
}
// * * * * * * * * * * * * * * * * * * * * * * * * * * * * * * * * * * * * * //

dimensions      [0 0 0 1 0 0 0];

internalField   nonuniform List<scalar> 
1227
(
290.208
290.209
290.219
290.258
290.301
290.324
290.33
290.332
290.333
290.333
290.332
290.329
290.325
290.32
290.314
290.309
290.303
290.296
290.289
290.282
290.275
290.27
290.265
290.259
290.252
290.248
290.243
290.237
290.23
290.226
290.217
290.212
290.206
290.199
290.195
290.194
290.195
290.213
290.262
290.304
290.328
290.337
290.341
290.34
290.338
290.334
290.328
290.323
290.318
290.312
290.306
290.3
290.293
290.286
290.278
290.273
290.268
290.265
290.26
290.253
290.244
290.235
290.224
290.215
290.206
290.199
290.193
290.192
290.196
290.197
290.173
290.17
290.203
290.259
290.304
290.329
290.339
290.341
290.34
290.337
290.332
290.326
290.321
290.316
290.31
290.304
290.297
290.292
290.287
290.281
290.273
290.265
290.26
290.257
290.253
290.248
290.231
290.194
290.168
290.155
290.153
290.156
290.162
290.171
290.177
290.145
290.144
290.185
290.244
290.294
290.323
290.333
290.123
290.114
290.11
290.108
290.117
290.133
290.148
290.159
290.116
290.109
290.162
290.224
290.278
290.313
290.327
290.083
290.085
290.081
290.074
290.081
290.099
290.123
290.143
290.084
290.075
290.13
290.198
290.256
290.3
290.323
290.07
290.065
290.057
290.049
290.048
290.063
290.094
290.126
290.047
290.035
290.094
290.166
290.229
290.278
290.307
290.07
290.055
290.045
290.032
290.019
290.025
290.064
290.108
290.008
289.994
290.053
290.131
290.197
290.248
290.276
290.066
290.051
290.032
290.014
289.996
289.992
290.031
290.09
289.967
289.95
290.012
290.093
290.159
290.206
290.236
290.053
290.042
290.02
289.995
289.972
289.962
289.993
290.071
289.927
289.904
289.97
290.053
290.115
290.155
290.17
290.023
290.018
290
289.975
289.947
289.933
289.958
290.052
289.887
289.86
289.929
290.011
290.062
290.069
290.041
289.983
289.983
289.975
289.954
289.925
289.906
289.927
290.031
289.846
289.822
289.899
289.974
289.999
289.981
289.966
289.967
289.964
289.968
289.975
289.984
289.992
289.997
290.001
290.002
290
289.997
289.99
289.972
289.949
289.936
289.937
289.943
289.95
289.956
289.96
289.954
289.952
289.949
289.933
289.902
289.881
289.898
290.009
289.807
289.787
289.865
289.932
289.946
289.939
289.946
289.965
289.986
290.011
290.036
290.059
290.077
290.088
290.092
290.085
290.069
290.046
290.017
289.988
289.966
289.951
289.939
289.93
289.926
289.925
289.926
289.925
289.923
289.92
289.906
289.88
289.856
289.87
289.987
289.769
289.752
289.829
289.888
289.903
289.91
289.937
289.982
290.034
290.085
290.132
290.171
290.2
290.219
290.225
290.216
290.189
290.147
290.096
290.044
290.005
289.973
289.947
289.925
289.91
289.902
289.898
289.896
289.893
289.888
289.877
289.856
289.832
289.844
289.966
289.734
289.717
289.793
289.845
289.864
289.888
289.941
290.02
290.108
290.192
290.264
290.322
290.368
290.401
290.42
290.418
290.388
290.327
290.241
290.146
290.067
290.005
289.957
289.919
289.891
289.874
289.867
289.865
289.864
289.859
289.849
289.83
289.807
289.82
289.95
289.702
289.683
289.756
289.804
289.829
289.873
289.959
290.079
290.212
290.337
290.442
290.528
290.597
290.653
290.692
290.708
290.688
290.615
290.483
290.323
290.177
290.061
289.975
289.914
289.873
289.849
289.838
289.835
289.834
289.832
289.824
289.807
289.786
289.798
289.935
289.673
289.649
289.719
289.764
289.797
289.867
289.993
290.164
290.353
290.53
290.681
290.803
290.905
290.988
291.056
291.104
291.109
291.043
290.861
290.608
290.359
290.16
290.017
289.922
289.861
289.827
289.811
289.806
289.806
289.805
289.799
289.786
289.764
289.774
289.92
289.649
289.618
289.684
289.726
289.77
289.868
290.042
290.276
290.534
290.78
290.992
291.163
291.306
291.424
291.529
291.616
291.656
291.624
291.392
291.015
290.628
290.315
290.093
289.949
289.861
289.811
289.788
289.78
289.779
289.78
289.776
289.764
289.742
289.754
289.906
289.628
289.589
289.649
289.69
289.745
289.875
290.104
290.412
290.756
291.092
291.385
291.62
291.824
291.986
292.133
292.263
292.334
292.36
292.04
291.492
290.946
290.509
290.198
289.993
289.868
289.798
289.764
289.752
289.752
289.756
289.754
289.743
289.721
289.733
289.892
289.612
289.561
289.617
289.655
289.72
289.882
290.168
290.56
291.011
291.464
291.864
292.183
292.494
292.721
292.917
293.078
293.138
293.24
292.669
291.885
291.205
290.685
290.31
290.052
289.887
289.792
289.745
289.728
289.727
289.732
289.733
289.722
289.701
289.713
289.879
289.598
289.537
289.585
289.621
289.694
289.879
290.216
290.695
291.276
291.895
292.468
292.92
293.404
293.729
293.975
294.138
294.085
294.204
293.024
291.999
291.279
290.767
290.387
290.108
289.914
289.793
289.73
289.707
289.705
289.71
289.712
289.703
289.682
289.692
289.865
289.588
289.514
289.556
289.588
289.662
289.862
290.237
290.797
291.517
292.326
293.073
293.555
294.412
294.895
295.182
295.277
294.921
294.929
292.878
291.772
291.149
290.728
290.398
290.133
289.932
289.796
289.719
289.687
289.683
289.689
289.691
289.683
289.663
289.67
289.848
289.578
289.493
289.53
289.557
289.621
289.795
290.143
290.724
291.599
292.781
294.117
295.052
296.405
296.976
297.225
297.21
296.295
294.277
292.233
291.357
290.91
290.6
290.341
290.114
289.928
289.791
289.707
289.67
289.663
289.668
289.672
289.664
289.643
289.646
289.826
289.568
289.476
289.508
289.531
289.576
289.708
289.988
290.456
291.087
291.761
292.268
292.104
291.412
290.946
290.643
290.416
290.22
290.044
289.89
289.77
289.691
289.652
289.643
289.648
289.653
289.647
289.625
289.624
289.801
289.555
289.462
289.489
289.51
289.548
289.645
289.815
290.006
290.117
290.066
289.909
291.21
290.872
290.595
290.385
290.217
290.071
289.941
289.826
289.733
289.669
289.635
289.625
289.629
289.634
289.629
289.608
289.602
289.772
289.539
289.449
289.472
289.494
289.526
289.582
289.641
289.667
289.659
289.656
289.673
290.785
290.567
290.362
290.196
290.06
289.944
289.842
289.756
289.687
289.639
289.614
289.608
289.611
289.615
289.611
289.591
289.579
289.735
289.519
289.437
289.458
289.477
289.498
289.522
289.539
289.553
289.574
289.599
289.61
290.503
290.311
290.146
290.024
289.924
289.836
289.758
289.693
289.643
289.609
289.593
289.59
289.594
289.598
289.593
289.575
289.558
289.691
289.497
289.428
289.446
289.461
289.473
289.485
289.499
289.518
289.539
289.559
289.576
290.234
290.051
289.935
289.865
289.807
289.749
289.691
289.643
289.606
289.583
289.573
289.573
289.577
289.58
289.575
289.559
289.539
289.641
289.475
289.422
289.437
289.448
289.456
289.465
289.477
289.49
289.502
289.512
289.526
289.932
289.799
289.752
289.736
289.716
289.682
289.642
289.605
289.577
289.561
289.555
289.556
289.559
289.562
289.558
289.544
289.523
289.593
289.452
289.417
289.43
289.438
289.444
289.451
289.46
289.464
289.463
289.452
289.434
289.633
289.623
289.641
289.654
289.652
289.635
289.606
289.577
289.554
289.542
289.538
289.539
289.542
289.544
289.542
289.53
289.51
289.55
289.428
289.413
289.424
289.43
289.437
289.443
289.448
289.449
289.444
289.42
289.31
289.386
289.551
289.59
289.605
289.609
289.6
289.579
289.556
289.536
289.526
289.522
289.523
289.525
289.527
289.527
289.518
289.5
289.513
289.41
289.411
289.421
289.427
289.433
289.438
289.439
289.438
289.436
289.417
289.211
288.105
288.119
288.129
288.13
288.121
288.092
289.249
289.526
289.555
289.569
289.577
289.573
289.558
289.538
289.522
289.512
289.509
289.51
289.512
289.513
289.513
289.506
289.49
289.487
289.399
289.409
289.419
289.426
289.432
289.434
289.432
289.427
289.421
289.414
289.435
289.026
288.846
288.823
288.826
288.857
289.048
289.525
289.506
289.523
289.543
289.555
289.553
289.54
289.523
289.51
289.502
289.499
289.499
289.501
289.502
289.502
289.496
289.481
289.472
289.393
289.409
289.42
289.427
289.432
289.433
289.433
289.431
289.427
289.42
289.405
289.371
289.27
289.18
289.175
289.271
289.413
289.466
289.492
289.512
289.53
289.542
289.54
289.528
289.512
289.5
289.493
289.49
289.49
289.491
289.493
289.492
289.486
289.473
289.46
289.389
289.409
289.422
289.429
289.433
289.436
289.438
289.438
289.437
289.431
289.417
289.371
289.264
289.19
289.199
289.284
289.408
289.465
289.489
289.508
289.525
289.534
289.532
289.518
289.503
289.493
289.487
289.483
289.483
289.484
289.485
289.484
289.478
289.466
289.452
289.385
289.41
289.425
289.433
289.439
289.443
289.446
289.449
289.452
289.448
289.429
289.382
289.297
289.262
289.288
289.347
289.428
289.472
289.496
289.513
289.527
289.533
289.528
289.513
289.496
289.486
289.481
289.479
289.479
289.48
289.48
289.479
289.472
289.458
289.445
289.383
289.412
289.431
289.44
289.447
289.452
289.457
289.465
289.472
289.468
289.448
289.416
289.371
289.364
289.396
289.433
289.47
289.495
289.512
289.525
289.534
289.537
289.529
289.513
289.497
289.486
289.481
289.479
289.478
289.477
289.476
289.473
289.465
289.45
289.436
289.385
289.417
289.44
289.453
289.461
289.468
289.477
289.488
289.495
289.49
289.474
289.452
289.429
289.436
289.459
289.48
289.501
289.517
289.53
289.54
289.546
289.545
289.536
289.521
289.506
289.495
289.488
289.484
289.48
289.477
289.472
289.466
289.456
289.441
289.43
289.398
289.426
289.46
289.48
289.493
289.503
289.512
289.521
289.525
289.519
289.506
289.491
289.473
289.478
289.494
289.51
289.525
289.537
289.548
289.557
289.562
289.561
289.552
289.539
289.527
289.517
289.508
289.5
289.491
289.482
289.472
289.46
289.447
289.433
289.429
289.502
289.477
289.527
289.554
289.568
289.576
289.578
289.575
289.568
289.557
289.543
289.532
289.518
289.519
289.527
289.536
289.545
289.555
289.565
289.575
289.582
289.584
289.581
289.574
289.566
289.558
289.548
289.537
289.523
289.506
289.487
289.467
289.449
289.44
289.463
289.688
289.671
289.674
289.684
289.686
289.683
289.677
289.666
289.649
289.62
289.592
289.572
289.56
289.556
289.556
289.556
289.56
289.569
289.583
289.596
289.608
289.618
289.622
289.623
289.621
289.618
289.613
289.604
289.592
289.575
289.555
289.534
289.519
289.522
289.543
)
;

boundaryField
{
    floor
    {
        type            empty;
    }
    ceiling
    {
        type            empty;
    }
    fixedWalls
    {
        type            zeroGradient;
    }
    rack2796428BA49E0232CAC645AEBC8DA5C1_fixedWall
    {
        type            zeroGradient;
    }
    rack2796428BA49E0232CAC645AEBC8DA5C1_inlet
    {
        type            fixedValue;
        value           uniform 288.15;
    }
    rack2796428BA49E0232CAC645AEBC8DA5C1_outlet
    {
        type            zeroGradient;
    }
    acu380F56D59CF2B3DF6EFF9D0E6E8D39CB_fixedWall
    {
        type            zeroGradient;
    }
}


// ************************************************************************* //
