/*--------------------------------*- C++ -*----------------------------------*\
| =========                 |                                                 |
| \\      /  F ield         | OpenFOAM: The Open Source CFD Toolbox           |
|  \\    /   O peration     | Version:  2.3.1                                 |
|   \\  /    A nd           | Web:      www.OpenFOAM.org                      |
|    \\/     M anipulation  |                                                 |
\*---------------------------------------------------------------------------*/
FoamFile
{
    version     2.0;
    format      ascii;
    class       volScalarField;
    location    "600";
    object      alphat;
}
// * * * * * * * * * * * * * * * * * * * * * * * * * * * * * * * * * * * * * //

dimensions      [0 2 -1 0 0 0 0];

internalField   nonuniform List<scalar> 
6852
(
0.00428013
0.00420182
0.00420565
0.00428954
0.00444239
0.00207568
0.0020489
0.00205099
0.00208059
0.00213464
0.00197799
0.00195757
0.00195989
0.00198352
0.00202569
0.00181106
0.00179824
0.0018007
0.00181733
0.00184917
0.00174678
0.00173229
0.00173518
0.00175444
0.00179095
0.00197543
0.00196425
0.0019662
0.00198079
0.00201061
0.00205359
0.00223967
0.00222965
0.00223057
0.0022422
0.00226576
0.0023007
0.00253844
0.0025297
0.00252977
0.00253857
0.00255648
0.00258354
0.00286759
0.00285973
0.002859
0.00286545
0.00287868
0.00289888
0.00322737
0.00322018
0.00321867
0.00322297
0.00323185
0.00324553
0.00362505
0.00361847
0.00361621
0.00361846
0.00362307
0.00363019
0.00407331
0.00406719
0.0040642
0.00406457
0.00406505
0.00406574
0.00456415
0.00455822
0.00455435
0.00455261
0.00454855
0.00454213
0.00506619
0.00506068
0.00505569
0.00505101
0.00504132
0.00502643
0.00551197
0.00550687
0.00549936
0.00548911
0.0054719
0.00544782
0.00583337
0.00582858
0.00581823
0.00580174
0.00577615
0.00574189
0.00601748
0.00601252
0.00599902
0.00597593
0.00594174
0.00589716
0.0060704
0.00606451
0.0060473
0.00601781
0.00597505
0.00592061
0.00601288
0.00600501
0.00598342
0.00594757
0.00589665
0.00583287
0.00587379
0.00586267
0.00583582
0.00579313
0.0057346
0.00566231
0.0056839
0.00566821
0.005635
0.00558468
0.00551806
0.00543745
0.0054713
0.00544968
0.00540881
0.00534972
0.00527404
0.00518439
0.00525852
0.00522967
0.00517965
0.00511032
0.00502412
0.00492411
0.00506142
0.00502415
0.00496335
0.00488203
0.00478348
0.00467132
0.00488924
0.00484253
0.0047693
0.00467411
0.00456114
0.00443481
0.00474494
0.00468818
0.00460104
0.00449023
0.00436084
0.00421834
0.00455952
0.00445746
0.00432971
0.00418231
0.00402208
0.00444974
0.00433315
0.00418837
0.00402244
0.00384385
0.00434953
0.00422072
0.00406049
0.00387702
0.00368085
0.00424291
0.00410964
0.00393919
0.00374203
0.00353111
0.00411768
0.00399245
0.00382021
0.00361591
0.00339513
0.00396337
0.00386871
0.00370627
0.00350332
0.00327852
0.0037737
0.003739
0.00360199
0.00341068
0.00318891
0.00364652
0.00365353
0.00353692
0.00335592
0.00313837
0.00366906
0.00365753
0.0035329
0.00334655
0.00312468
0.00363942
0.00362755
0.00350314
0.00331584
0.00309203
0.00349498
0.0035075
0.00340388
0.00322906
0.00301237
0.00325021
0.00330685
0.00323754
0.00308514
0.00288111
0.00296782
0.0030765
0.00304156
0.00291063
0.00273536
0.00270855
0.00287112
0.00288749
0.00280353
0.00266002
0.00544
0.00596904
0.00616882
0.0061137
0.00588327
0.00196245
0.00193248
0.00193401
0.00196609
0.00202547
0.00233107
0.00234924
0.00235345
0.00234205
0.0023303
0.0027178
0.00273308
0.0027397
0.00273518
0.00272576
0.00283483
0.00285831
0.0028687
0.00286286
0.002848
0.00446979
0.00454544
0.00456463
0.00452459
0.00446
0.00657795
0.00665053
0.00667203
0.00664039
0.00657674
0.00810329
0.00816487
0.00818115
0.00815058
0.00808635
0.00798724
0.00896017
0.00901242
0.00902351
0.00899207
0.00892714
0.00882702
0.00929075
0.0093354
0.00934256
0.00931065
0.00924634
0.00914733
0.00914008
0.00917951
0.00918436
0.00915275
0.00909008
0.00899372
0.00845674
0.00849142
0.00849487
0.00846485
0.00840539
0.00831338
0.00734052
0.00737003
0.00737273
0.00734607
0.00729317
0.00721076
0.00619534
0.00621969
0.00622211
0.00620016
0.00615679
0.00608917
0.00521221
0.00523057
0.00523258
0.00521589
0.00518345
0.00513288
0.00431876
0.00432859
0.00432247
0.00430006
0.00427555
0.00424906
0.00361233
0.00361754
0.00361384
0.00360056
0.00358656
0.00357156
0.00324474
0.00324843
0.00324784
0.00324169
0.00323369
0.00322299
0.00308231
0.00308581
0.0030871
0.00308477
0.00307922
0.00306928
0.00302118
0.00302523
0.00302772
0.00302715
0.00302207
0.00301123
0.00300492
0.00300981
0.00301308
0.00301314
0.00300751
0.00299507
0.00300614
0.00301184
0.0030155
0.00301549
0.00300899
0.00299472
0.0030132
0.00301946
0.00302314
0.00302255
0.00301491
0.00299919
0.0030224
0.00302889
0.00303222
0.00303066
0.0030217
0.00300458
0.00303349
0.00303991
0.00304254
0.00303972
0.00302927
0.00301077
0.00304728
0.0030534
0.003055
0.00305066
0.00303861
0.00301872
0.00306471
0.00307022
0.00307037
0.00306425
0.00305054
0.00302927
0.00308822
0.00309207
0.00308951
0.00308092
0.00306534
0.00304271
0.00312232
0.00311369
0.00310084
0.00308274
0.00305873
0.00317248
0.00314814
0.00312586
0.00310292
0.0030769
0.00325418
0.00319698
0.00315653
0.00312495
0.00309597
0.0034011
0.00327309
0.0031974
0.00314933
0.00311507
0.0036038
0.00336802
0.0032392
0.00316968
0.00312984
0.00376125
0.00343923
0.00326168
0.00317683
0.00313596
0.00382341
0.003456
0.00324912
0.00316213
0.0031297
0.0037845
0.00340876
0.00320131
0.0031332
0.00312736
0.00357121
0.00329088
0.00313278
0.00311951
0.00316938
0.00314588
0.00308075
0.00306614
0.00315728
0.00327999
0.00285035
0.00291652
0.00305975
0.00323015
0.00331618
0.0027384
0.00279474
0.00293301
0.00305355
0.00316034
0.00252787
0.00242153
0.00238786
0.00244011
0.00256246
0.00299462
0.00312594
0.00310547
0.00298807
0.00281663
0.00200261
0.00197325
0.0019745
0.00200557
0.00206212
0.00239773
0.00241156
0.00241439
0.00240539
0.00239543
0.00233714
0.00233754
0.00233925
0.0023416
0.00234019
0.00196111
0.00197179
0.001977
0.00197532
0.00196905
0.00385019
0.00394192
0.00396555
0.00391989
0.00385532
0.00732577
0.00741538
0.00744535
0.00741572
0.00736199
0.0103308
0.0103939
0.010414
0.0103913
0.0103454
0.012247
0.0122923
0.0123023
0.0122768
0.0122264
0.0121485
0.013246
0.0132817
0.0132841
0.0132525
0.0131916
0.0130967
0.0131843
0.0132202
0.0132197
0.0131816
0.0131064
0.0129888
0.0116035
0.0116501
0.0116521
0.011608
0.0115154
0.0113686
0.00960663
0.00968291
0.009697
0.00965343
0.00955308
0.00939616
0.00823496
0.00831126
0.00832507
0.00828158
0.00818009
0.00802379
0.00737749
0.00744028
0.00745111
0.0074128
0.00732249
0.00718297
0.00679141
0.00683629
0.00684103
0.00680662
0.0067322
0.00661871
0.00629555
0.00631944
0.00631293
0.00626345
0.00620208
0.00613148
0.00560871
0.00558948
0.00555652
0.00550302
0.00546162
0.00543595
0.00496086
0.00491154
0.00486453
0.00481655
0.00479397
0.00479939
0.00447693
0.00440871
0.00435511
0.0043148
0.00430622
0.00432953
0.00414818
0.00406799
0.00401141
0.00397792
0.00397898
0.00401124
0.00393167
0.00384352
0.00378593
0.00375818
0.00376578
0.00380228
0.00378761
0.00369441
0.00363752
0.00361512
0.00362742
0.0036652
0.00368547
0.00359041
0.00353647
0.00351991
0.00353614
0.00357331
0.00360203
0.00350954
0.00346191
0.00345262
0.0034728
0.00350823
0.00351938
0.00343557
0.00339889
0.00339919
0.00342403
0.00345713
0.00342447
0.00335704
0.00333701
0.00334976
0.00338045
0.00341109
0.00331198
0.0032689
0.00327086
0.00329848
0.00333621
0.0033645
0.00318909
0.00317527
0.00320116
0.00324381
0.00328897
0.00331486
0.00310042
0.00314049
0.00319139
0.00324119
0.00326323
0.00307837
0.00310695
0.00315032
0.00319815
0.00321307
0.00320942
0.00314359
0.00314041
0.00316976
0.00317013
0.00356537
0.00328024
0.00316915
0.00316011
0.00313753
0.00394476
0.00342904
0.00320551
0.0031549
0.0031109
0.00420647
0.00352944
0.0032243
0.00314278
0.00308641
0.00425623
0.00353785
0.00320948
0.00312205
0.00306924
0.00408564
0.00346323
0.00317977
0.0031159
0.00308286
0.00375007
0.00335634
0.00317619
0.00315977
0.00315283
0.00340755
0.00328031
0.00324639
0.00327826
0.00329381
0.00325708
0.0034346
0.00346304
0.00350149
0.00351541
0.0024985
0.00268194
0.00292569
0.00303757
0.00313327
0.00330152
0.00328946
0.00313068
0.00290754
0.00268277
0.00214133
0.00210789
0.00210908
0.00214421
0.00220662
0.00234908
0.00235925
0.00235992
0.00235162
0.00234353
0.00222433
0.00221053
0.00220834
0.00221782
0.00222566
0.00153167
0.00153077
0.0015318
0.00153421
0.00153511
0.00296928
0.00306292
0.00308438
0.00303437
0.00297263
0.00736052
0.00746323
0.00749524
0.00745971
0.00740721
0.0114049
0.0114554
0.0114712
0.0114544
0.0114276
0.0135655
0.0135895
0.0135921
0.0135741
0.013545
0.0141929
0.0142086
0.0142037
0.0141777
0.0141325
0.0129001
0.0129254
0.0129206
0.0128849
0.0128156
0.012705
0.00873984
0.0087957
0.00880075
0.00875657
0.0086585
0.00850234
0.00562365
0.00573092
0.00575821
0.00572114
0.00562749
0.00548742
0.00469399
0.0047656
0.004775
0.0047299
0.00462795
0.00448314
0.00448608
0.0045253
0.00452105
0.00447561
0.00438096
0.00424897
0.00463172
0.0046452
0.00463009
0.00458981
0.00450897
0.00439153
0.00497693
0.00497273
0.00495007
0.00491515
0.00484794
0.00474216
0.00539726
0.0053769
0.00533738
0.00529625
0.00523258
0.00513035
0.00577165
0.00572067
0.00566042
0.00560915
0.00554587
0.00544585
0.00604704
0.00596381
0.0058823
0.00581967
0.00575386
0.00565306
0.0062263
0.00611304
0.00601209
0.00593829
0.0058671
0.00576128
0.00632703
0.00618911
0.00607217
0.00598833
0.00590944
0.00579425
0.00636387
0.00620898
0.0060808
0.00598888
0.00590085
0.00577281
0.00634227
0.00618074
0.00604752
0.00595055
0.00585319
0.00571014
0.0062651
0.00610514
0.00597467
0.005877
0.0057716
0.00561297
0.00613067
0.00597858
0.00586034
0.00576774
0.00565714
0.00548408
0.00593013
0.00579698
0.00570203
0.00562118
0.00550955
0.00532472
0.00565779
0.00555859
0.00549926
0.00543686
0.00532934
0.00513663
0.0053244
0.00527468
0.00525937
0.00521866
0.00512008
0.0049236
0.00496641
0.00497767
0.00500287
0.00497707
0.00489002
0.0046925
0.00472745
0.00476714
0.00473036
0.00465301
0.00445379
0.00485861
0.00466269
0.00451588
0.00442903
0.00422013
0.005159
0.00486564
0.00438243
0.0042459
0.00400804
0.00539637
0.0049747
0.00424643
0.00406648
0.00381263
0.00554058
0.0049269
0.00410319
0.003889
0.00363575
0.00549629
0.00475682
0.00395224
0.00372187
0.00348296
0.0052547
0.00452339
0.00380833
0.00357863
0.00336265
0.0049746
0.00430532
0.00370772
0.00348199
0.00328849
0.00445699
0.00380113
0.00356356
0.00340811
0.00326651
0.00370464
0.00362922
0.00353015
0.00344565
0.00335937
0.00267997
0.00293058
0.00299131
0.00304657
0.00308782
0.00337894
0.00328721
0.00306116
0.00281738
0.00258827
0.00216014
0.00212543
0.00212787
0.00216626
0.00223252
0.00198396
0.00198654
0.00198766
0.00198695
0.00199014
0.00222659
0.00220415
0.00220295
0.00222172
0.00224286
0.0014022
0.00139812
0.00139798
0.00140149
0.0014045
0.00241106
0.00249709
0.00251534
0.00246727
0.00241354
0.00774128
0.00786219
0.00789638
0.00785004
0.00779315
0.0128203
0.0128506
0.0128601
0.0128518
0.0128491
0.0145738
0.0145692
0.0145633
0.0145576
0.0145591
0.0139778
0.0139698
0.0139589
0.0139445
0.0139268
0.0106581
0.0106714
0.0106646
0.010637
0.0105847
0.00437364
0.00441814
0.0044233
0.00439419
0.00432905
0.00422858
0.00249892
0.00253521
0.00254383
0.00253122
0.00250032
0.00245591
0.00260672
0.0025489
0.00254709
0.00254919
0.00253432
0.00250233
0.00288979
0.00282375
0.00281416
0.00281599
0.00280235
0.00277001
0.00341816
0.00333671
0.00332329
0.00332935
0.00329278
0.00322372
0.00403918
0.00391999
0.00386337
0.00383315
0.00376249
0.00363324
0.00462044
0.00448066
0.00439365
0.00432645
0.00420689
0.00399598
0.00511273
0.00496988
0.0048522
0.00473996
0.00455962
0.0042612
0.00548302
0.00533558
0.00518983
0.00503277
0.00479143
0.00441588
0.00571332
0.00556662
0.00539642
0.00519842
0.0049033
0.00446878
0.00580534
0.00567361
0.00548415
0.00525159
0.00491372
0.00444025
0.00578137
0.00567503
0.0054724
0.00521304
0.00484495
0.00435168
0.00566927
0.00559018
0.00538064
0.00510308
0.00471775
0.00422225
0.00550048
0.00543725
0.00522648
0.00493975
0.00455017
0.00406801
0.00531367
0.00523279
0.00502552
0.00473889
0.00435764
0.00390201
0.00509433
0.00499294
0.00479337
0.0045153
0.00415358
0.00373448
0.00483742
0.00473073
0.00454415
0.00428199
0.00394897
0.00357271
0.00459181
0.00448343
0.00430123
0.00405438
0.00375408
0.0034219
0.00436541
0.00427394
0.00408944
0.00384499
0.00357657
0.0032847
0.00442981
0.0042988
0.0039736
0.00367955
0.00342771
0.00316504
0.0047562
0.00416999
0.00358962
0.00331817
0.00306459
0.00580935
0.00462729
0.00367014
0.00326752
0.00299539
0.00634184
0.00477057
0.00371426
0.00321608
0.0029421
0.00649347
0.00478985
0.00369845
0.00316155
0.00289755
0.00643661
0.0046978
0.00364157
0.00310882
0.00286563
0.0061617
0.00452334
0.00357699
0.00306837
0.00285463
0.00575899
0.00447425
0.00357755
0.0030772
0.00288512
0.00475636
0.00397346
0.0033084
0.00303017
0.00291368
0.00338434
0.00313891
0.00302653
0.00296348
0.00294502
0.00275868
0.00266487
0.00271109
0.00277889
0.00280785
0.00337809
0.00336603
0.00322505
0.00301479
0.00278249
0.00429406
0.00421058
0.0042189
0.00431566
0.00448123
0.00190582
0.00187153
0.00187614
0.00191712
0.00198963
0.00172911
0.00168747
0.00169351
0.00174255
0.00182405
0.00131382
0.00131234
0.00131229
0.00131358
0.00131439
0.00235238
0.00241003
0.00241974
0.0023844
0.00234784
0.00906587
0.00917818
0.00920804
0.00916304
0.00911747
0.0151137
0.0151185
0.0151221
0.0151274
0.0151539
0.0159281
0.0158931
0.0158813
0.0158936
0.015934
0.0135688
0.0135341
0.0135195
0.0135232
0.0135446
0.00807039
0.00807756
0.00807199
0.00805354
0.00802022
0.00190261
0.00191834
0.00191931
0.00190958
0.00188951
0.002048
0.00203385
0.00202838
0.00202897
0.00203121
0.00203195
0.00183508
0.0018388
0.00189039
0.00197333
0.00209187
0.0022268
0.00159779
0.00168028
0.00183909
0.00203475
0.00225016
0.00247828
0.00161619
0.00174655
0.00195736
0.00217111
0.00237401
0.00258027
0.00157059
0.00174374
0.00195581
0.00215393
0.0023402
0.00253087
0.00160121
0.00183866
0.00204078
0.00221305
0.00237506
0.00254342
0.00173948
0.00195934
0.00214283
0.00229642
0.00243836
0.00258592
0.00190688
0.00210762
0.00226972
0.00240172
0.00252165
0.00264684
0.00209504
0.0022733
0.00241284
0.00252242
0.00261977
0.00272203
0.00229712
0.00245174
0.00256808
0.00265466
0.00272901
0.00280797
0.00251099
0.00264226
0.00273424
0.00279681
0.00284735
0.00290236
0.00273902
0.00284625
0.00291176
0.00294849
0.00297376
0.00300368
0.00298619
0.00306648
0.0031022
0.00311025
0.00310796
0.00311101
0.00326092
0.00330774
0.00330848
0.00328363
0.0032504
0.00322395
0.00356853
0.00357507
0.00353373
0.00347042
0.00340167
0.0033421
0.00392334
0.0038799
0.00378416
0.00367363
0.00356259
0.00346467
0.00432114
0.00422009
0.00405914
0.00389228
0.00373178
0.0035892
0.00483652
0.00464779
0.0043773
0.00413111
0.00390827
0.00371194
0.00530437
0.00505568
0.00471136
0.00437161
0.00408467
0.00382597
0.00633626
0.00587959
0.00514589
0.00462573
0.00425273
0.00392011
0.00656466
0.00576716
0.00484641
0.00441672
0.00398815
0.00680626
0.0060056
0.00490896
0.00446134
0.00398202
0.00683197
0.00602732
0.00486567
0.00440635
0.00390913
0.00674708
0.00590861
0.00473279
0.00426945
0.00377595
0.00662355
0.00555837
0.00444398
0.00402692
0.00357302
0.00648818
0.00494961
0.00401204
0.00366663
0.00328583
0.00462293
0.00401021
0.00358465
0.0033106
0.00302554
0.00366802
0.00354189
0.00331309
0.00309721
0.00285671
0.0033547
0.00327948
0.00313839
0.00296376
0.00276256
0.00677587
0.00692295
0.00677734
0.00647045
0.00606643
0.00119798
0.00119797
0.00119795
0.00119793
0.00119821
0.00342819
0.00346324
0.00347134
0.00345475
0.00343738
0.0126629
0.0127223
0.0127434
0.012731
0.0127258
0.0184713
0.0184593
0.0184607
0.0184776
0.01852
0.0182823
0.0182381
0.0182285
0.0182543
0.0183175
0.0145968
0.0145462
0.0145324
0.0145537
0.014609
0.00613897
0.00613328
0.00612829
0.00612251
0.00611427
0.00123403
0.00123536
0.00123553
0.00123472
0.00123318
0.00687576
0.016256
0.00776597
0.00768886
0.00758095
0.00748416
0.0136347
0.000857834
0.000857809
0.000857796
0.000857796
0.000857848
0.00859927
0.00860288
0.0086041
0.00860331
0.00860359
0.0188479
0.0188609
0.0188678
0.01887
0.0188768
0.021788
0.0217836
0.021786
0.0217962
0.0218177
0.021264
0.0212475
0.0212482
0.0212674
0.0213067
0.0185399
0.0185135
0.0185121
0.0185361
0.0185853
0.00879465
0.00878463
0.00878237
0.00878678
0.00879664
0.000855743
0.000855762
0.000855746
0.000855695
0.000855632
0.00890747
0.0223363
0.00766064
0.0100087
0.00982149
0.00969803
0.00966768
0.018569
0.00243069
0.00230257
0.00215905
0.00200351
0.00183914
0.00119024
0.00113296
0.00106738
0.00099545
0.000918976
0.00239483
0.00227575
0.00214006
0.00199093
0.00183163
0.00111045
0.000957616
0.000888725
0.000847745
0.000831563
0.00078663
0.000675424
0.000544276
0.000432584
0.000427277
0.000966632
0.000864853
0.000740385
0.00060723
0.000502322
0.00107856
0.000980119
0.000858797
0.00072421
0.000612371
0.000590373
0.00116483
0.00106709
0.000947392
0.000812998
0.000698408
0.000665046
0.00123306
0.00113864
0.00102371
0.000891818
0.000775193
0.000739377
0.00128551
0.00119902
0.00109417
0.000968803
0.000849667
0.000814542
0.0013198
0.00124941
0.00116381
0.00104955
0.000927114
0.000891595
0.00133333
0.0012831
0.00122973
0.00113175
0.00101356
0.000970913
0.00119581
0.00124511
0.0012723
0.0012111
0.0011054
0.00105134
0.000847808
0.000894653
0.00117743
0.00126999
0.00119287
0.00112875
0.000734216
0.000742863
0.00109239
0.00131786
0.0012651
0.00119709
0.00250514
0.00134119
0.00131404
0.00125079
0.00250436
0.00133196
0.00134023
0.00129
0.00251407
0.00132507
0.00136007
0.00132296
0.00261875
0.0013418
0.0013857
0.00135785
0.00285953
0.00139561
0.00142529
0.00140086
0.00329514
0.00148755
0.00148579
0.00145567
0.00427071
0.00164337
0.00156822
0.00152278
0.00689654
0.00201748
0.00168335
0.00160256
0.0142453
0.0266445
0.0069733
0.00288421
0.00183194
0.00168885
0.00766929
0.0111914
0.00672385
0.00325499
0.00194758
0.00176738
0.00805329
0.00990245
0.00624537
0.00333568
0.00201789
0.00182851
0.00826752
0.00974089
0.00594928
0.00329141
0.00205298
0.00186854
0.0101226
0.00536394
0.0031239
0.00206541
0.00188828
0.0215266
0.00571669
0.00304863
0.0020665
0.00188521
0.00616195
0.00354898
0.00265652
0.00205197
0.00186174
0.00301696
0.00247824
0.00220111
0.00192882
0.00177778
0.0021018
0.00201746
0.0018873
0.00176174
0.00164651
0.0040916
0.00399931
0.00376435
0.00350807
0.00328521
0.00126849
0.00121706
0.00115601
0.0010873
0.00101281
0.00116483
0.00114887
0.00113163
0.00111102
0.00108578
0.00123289
0.00119103
0.00113849
0.00107668
0.00100738
0.000588699
0.000486922
0.000446242
0.000440219
0.000439557
0.00158723
0.00150158
0.00141699
0.00138194
0.00141638
0.0020363
0.00194068
0.00184752
0.00179305
0.00184787
0.0022824
0.00217867
0.0020857
0.00203504
0.00210355
0.00234436
0.0022378
0.00216455
0.00214451
0.00224398
0.00253805
0.00222136
0.00213086
0.00208934
0.00212734
0.00227644
0.00261562
0.00204471
0.00196389
0.00193891
0.00201065
0.00223831
0.00262617
0.00192783
0.00183147
0.00178814
0.00185304
0.00215129
0.00259757
0.00186348
0.00174069
0.00165726
0.00168282
0.00200383
0.00256091
0.00158212
0.00157572
0.00150357
0.00150665
0.00183738
0.00256695
0.00179472
0.00172094
0.00144828
0.00141237
0.00179779
0.00256664
0.0044422
0.00346701
0.00134093
0.00137024
0.0017987
0.00255945
0.00116178
0.00135994
0.00182142
0.00254929
0.001112
0.0013953
0.0018813
0.00254276
0.00109156
0.00145813
0.00197502
0.00253824
0.00111083
0.00154833
0.002079
0.00252811
0.00116908
0.00166708
0.00215809
0.00250581
0.00129138
0.00176416
0.00220962
0.00246922
0.00168685
0.00173651
0.00222636
0.00241973
0.00351066
0.00120658
0.00209654
0.00235158
0.0194985
0.0311143
0.0117965
0.00207716
0.00144124
0.00223848
0.00809252
0.013013
0.0108061
0.00267188
0.00131411
0.00212497
0.00804361
0.0102122
0.00956418
0.00272462
0.00133068
0.00203015
0.00824661
0.00993381
0.00888142
0.00257834
0.0013664
0.00195425
0.00820309
0.0108226
0.00877258
0.00234597
0.00140629
0.00188882
0.0217964
0.00996771
0.00235154
0.00144348
0.00182774
0.0108946
0.00484031
0.00170051
0.00155451
0.00176756
0.00296417
0.00183891
0.00138576
0.00162594
0.00168704
0.00155766
0.00142585
0.00149965
0.00161655
0.00159479
0.00193546
0.00184099
0.00168049
0.00155049
0.00145926
0.00138782
0.00134539
0.00129123
0.00122719
0.00115526
0.00114482
0.00112005
0.00109938
0.00108026
0.00106061
0.0013305
0.00130196
0.00126051
0.00120727
0.00114404
0.000724591
0.000596503
0.00049022
0.000474445
0.000481263
0.00181296
0.00172765
0.00166277
0.00167045
0.00178688
0.00255318
0.00242773
0.00231972
0.00228538
0.00242235
0.00312702
0.00296267
0.002823
0.00276469
0.00289526
0.00350798
0.00332506
0.00317518
0.00311881
0.00325154
0.00367766
0.00347575
0.00333268
0.00330533
0.00348478
0.003866
0.00362109
0.00340967
0.00328754
0.00331216
0.00357112
0.00401544
0.00340443
0.00317595
0.00306216
0.00313809
0.00351279
0.00409771
0.00292808
0.00275392
0.0026573
0.00277769
0.00330451
0.00413048
0.00207987
0.00211527
0.00212942
0.00231762
0.00302993
0.00419045
0.00278795
0.00250758
0.00194243
0.00203504
0.00294737
0.00432772
0.00605438
0.00451985
0.00168597
0.00190697
0.00311812
0.00442036
0.00119106
0.00193267
0.00329719
0.00447494
0.00112082
0.00209816
0.00349057
0.00449305
0.00109532
0.0023179
0.00368595
0.00448043
0.00111239
0.00255242
0.0038577
0.00444176
0.00116791
0.00275896
0.00396887
0.00438306
0.0012784
0.00284963
0.0040237
0.00431092
0.00176949
0.00240136
0.00392099
0.00421894
0.00413734
0.00129365
0.00306748
0.00404206
0.0253792
0.034227
0.0152818
0.00340968
0.0014485
0.00357249
0.00909185
0.0150412
0.0139867
0.00450248
0.00140151
0.00320533
0.00809035
0.0106589
0.0121889
0.00454142
0.00146538
0.00301696
0.00825526
0.010172
0.0112451
0.00421003
0.00149234
0.00294483
0.00835378
0.011565
0.0112762
0.0036775
0.00149799
0.00292435
0.0115979
0.0216382
0.012364
0.00346148
0.00152432
0.00288455
0.0134885
0.00685629
0.00231689
0.00170134
0.00281218
0.00523202
0.00287959
0.00152807
0.00201099
0.00258282
0.00174782
0.00144232
0.00152831
0.002005
0.00210097
0.00197864
0.00184892
0.001679
0.00155829
0.00148171
0.0014384
0.00140079
0.00135181
0.00129279
0.00122548
0.00114945
0.00111828
0.00109197
0.00106834
0.00104582
0.00136371
0.00134426
0.00131141
0.00126587
0.00120929
0.000864556
0.000713078
0.000567154
0.000516307
0.000531431
0.00201804
0.00190574
0.00181776
0.00184727
0.00205295
0.00295021
0.00277942
0.0026432
0.00263341
0.0028764
0.00374232
0.00351883
0.00334702
0.00331062
0.00353394
0.0043619
0.00412054
0.00392481
0.00386686
0.00406727
0.00479461
0.00453429
0.00432634
0.00426437
0.00445902
0.00495787
0.0046772
0.00447804
0.00445024
0.00469128
0.00510264
0.00470998
0.00442641
0.00427375
0.00434404
0.00472687
0.00527008
0.00370138
0.00366498
0.00365631
0.00389341
0.00454169
0.00535704
0.00264553
0.00267581
0.00284311
0.00327462
0.00426274
0.00544395
0.00372172
0.00325906
0.00252148
0.00286042
0.00418447
0.00558865
0.00608485
0.00466969
0.00208587
0.00266404
0.00441333
0.0056608
0.00126815
0.00271687
0.00459421
0.00563941
0.0011894
0.00296288
0.00474356
0.00555085
0.00116018
0.0032253
0.00485489
0.00542535
0.00117129
0.00343785
0.00491999
0.00527752
0.00121778
0.00355807
0.00492205
0.0051211
0.00132469
0.00350634
0.00485391
0.00496347
0.00193199
0.00262776
0.00452778
0.00478577
0.00469946
0.00155051
0.00311479
0.00446731
0.0313272
0.0364351
0.018133
0.00502232
0.00153476
0.00368318
0.0108335
0.0171337
0.0165393
0.00654319
0.00171849
0.00317647
0.00822751
0.011271
0.0143098
0.00651014
0.00185386
0.00297063
0.00829734
0.0104811
0.0131683
0.00597445
0.00185231
0.00291871
0.00855741
0.0123058
0.0132042
0.0051285
0.00175559
0.00292962
0.0121559
0.0212559
0.013895
0.00460532
0.0016785
0.00293678
0.014139
0.0150496
0.0085399
0.00308743
0.00170142
0.00295659
0.00711384
0.00402394
0.00188341
0.00197899
0.00289093
0.0026161
0.00183539
0.00158032
0.00210218
0.00230658
0.00204437
0.00188135
0.00169326
0.0015829
0.00152526
0.00145539
0.00141899
0.00137293
0.00131785
0.00125497
0.0011725
0.00113675
0.00110588
0.00107778
0.00105122
0.00136679
0.00135297
0.00132624
0.00128671
0.00123588
0.000998257
0.000824966
0.00065662
0.000573758
0.000599211
0.00225751
0.00212403
0.00202085
0.00207639
0.0023602
0.00341212
0.00319373
0.00303891
0.00306305
0.00341368
0.00443082
0.00416023
0.00395646
0.00393758
0.00424025
0.0052545
0.00496123
0.00472055
0.00465957
0.00489638
0.00581656
0.00552198
0.00527145
0.00519214
0.00538692
0.00602265
0.00573529
0.00551579
0.00547885
0.00570529
0.00563041
0.00541634
0.00530384
0.00541811
0.00581496
0.00622995
0.00419504
0.00435731
0.00455236
0.00494973
0.00569336
0.00638075
0.00326494
0.00325629
0.00356683
0.0042814
0.00547836
0.00650054
0.00446621
0.00390306
0.0031292
0.0037974
0.00544784
0.00660014
0.00579584
0.00452553
0.00247145
0.00357663
0.00562185
0.00659623
0.00137145
0.00355213
0.00568808
0.00646204
0.00129044
0.00375706
0.0056975
0.0062407
0.00125507
0.00394997
0.00565928
0.00597497
0.0012556
0.00406742
0.00558017
0.00570208
0.00128759
0.00408634
0.00546336
0.00544284
0.00138504
0.00390013
0.00527782
0.00520032
0.00209183
0.00269933
0.00475376
0.00494127
0.00516391
0.0019867
0.00297082
0.00449699
0.036874
0.0382797
0.0203237
0.00692662
0.00178564
0.00346225
0.0132945
0.0192885
0.0185361
0.00874287
0.00229331
0.00288205
0.00851734
0.0120688
0.0160475
0.00854901
0.00252574
0.00267149
0.00838007
0.0108829
0.0147656
0.00779599
0.00245955
0.00261383
0.00881054
0.0130211
0.0147404
0.00663429
0.00219261
0.00263314
0.0126958
0.0207912
0.0149628
0.00574289
0.00193976
0.00268019
0.0152691
0.0160234
0.00991806
0.00388716
0.00175737
0.00277643
0.0096095
0.00866157
0.00511906
0.00229882
0.00188743
0.00284539
0.00363583
0.00234086
0.00167783
0.0020641
0.00230057
0.0021892
0.00193919
0.00171541
0.00161328
0.00157742
0.00146167
0.0014235
0.00137794
0.00132494
0.00126514
0.00119922
0.00115959
0.00112488
0.00109299
0.00106296
0.00136023
0.00134958
0.0013268
0.00129148
0.00124493
0.00112502
0.000933682
0.000749355
0.000648235
0.00068422
0.00252694
0.0023826
0.00228062
0.00238353
0.00272607
0.00396558
0.00371111
0.00354489
0.00361002
0.00403803
0.00526012
0.00493682
0.00469056
0.00467789
0.00500541
0.00621079
0.00588164
0.00559802
0.00551967
0.00573549
0.00677618
0.00648099
0.00621247
0.0061185
0.00627047
0.00688048
0.00664934
0.00646252
0.00644356
0.0066314
0.00619766
0.00619998
0.00621276
0.00640971
0.00679813
0.00458213
0.00488993
0.00537311
0.00596614
0.0067571
0.00718435
0.00389861
0.003856
0.00428875
0.00531158
0.00663449
0.00731327
0.00499523
0.0044023
0.00374499
0.00480148
0.00663419
0.00736035
0.00547848
0.00427788
0.0028162
0.00458093
0.00667267
0.00726424
0.00149127
0.00433831
0.00656295
0.00700065
0.00141141
0.00440301
0.00639672
0.00664523
0.00136785
0.00447601
0.00619996
0.00625949
0.00135593
0.00448838
0.00598457
0.00588382
0.00137167
0.0044195
0.0057551
0.00554009
0.00145729
0.00413258
0.00547207
0.00522835
0.00223992
0.0027398
0.00480298
0.00490401
0.00553746
0.00244032
0.00286217
0.00436682
0.0417023
0.039986
0.0220464
0.0085617
0.0022013
0.00320666
0.0163454
0.0215377
0.020226
0.0107341
0.00299491
0.0026201
0.00903471
0.0130592
0.0174596
0.0105002
0.00327793
0.00241865
0.00851397
0.0113879
0.0160971
0.00957368
0.00314017
0.00236045
0.00910937
0.0136981
0.0159863
0.00813796
0.00271233
0.00237327
0.0132066
0.0203362
0.0157745
0.00687558
0.00228208
0.002434
0.0160685
0.0166553
0.0110698
0.00472256
0.00189771
0.00256998
0.0111031
0.0099363
0.00615598
0.0027812
0.00184018
0.00271374
0.00578182
0.00466869
0.00292083
0.0018303
0.00199054
0.0022141
0.00237805
0.00202191
0.00174437
0.00164459
0.00163263
0.00146788
0.00142592
0.00137891
0.00132626
0.00126799
0.00122711
0.00118368
0.00114522
0.00110971
0.00107638
0.00135306
0.0013441
0.00132378
0.00129126
0.00124759
0.00124728
0.00104338
0.000846981
0.00073884
0.000781273
0.00283011
0.00268445
0.00259317
0.00275651
0.00311995
0.00463451
0.00434087
0.00414998
0.00424542
0.00469209
0.006175
0.00580047
0.0055066
0.00547679
0.00575869
0.00715775
0.00681738
0.00650118
0.00638811
0.00651766
0.00763906
0.00738121
0.00712122
0.00700777
0.00705886
0.00756
0.00745025
0.00733924
0.00734403
0.00743687
0.00656811
0.00683515
0.00704532
0.00733696
0.00765264
0.0049426
0.00535212
0.00614938
0.00694359
0.00769499
0.0044973
0.00443765
0.0050113
0.00633321
0.00764894
0.00783713
0.00534032
0.00476174
0.00436128
0.00581863
0.00763046
0.00784186
0.00518057
0.00399091
0.00313184
0.00557723
0.00749746
0.00765573
0.00162089
0.00500144
0.00719339
0.00727612
0.00154504
0.00487461
0.00685397
0.00681079
0.00149314
0.00481605
0.00651597
0.00633511
0.00146962
0.00473193
0.00619132
0.00589324
0.00147143
0.00459166
0.00588073
0.00550443
0.00154923
0.00423319
0.005534
0.00516367
0.00238908
0.00275966
0.0047793
0.00481771
0.00581416
0.00283452
0.00281032
0.00424702
0.0456306
0.0414735
0.0233367
0.00978956
0.00260713
0.00305489
0.0198169
0.0239186
0.0217162
0.0124053
0.00370607
0.00247853
0.00983858
0.0142438
0.0186897
0.0122519
0.00410532
0.00229102
0.00871324
0.0120012
0.0172035
0.0112427
0.00393284
0.00221999
0.00945028
0.0143343
0.0170073
0.00960887
0.00336214
0.00220426
0.0136838
0.0199452
0.0164401
0.00801413
0.00274457
0.00224988
0.0166587
0.0170905
0.0120606
0.00560455
0.00214418
0.00239551
0.0123358
0.0110075
0.00714386
0.00333779
0.00186734
0.00257532
0.00706237
0.00568241
0.00356261
0.00204871
0.00192459
0.002102
0.00279701
0.00259341
0.00213217
0.00178711
0.00168015
0.00169078
0.0014785
0.00143152
0.00138176
0.00132813
0.00127011
0.00125589
0.00120867
0.00116644
0.00112734
0.00109063
0.00134924
0.00134119
0.00132243
0.00129175
0.00124987
0.00136557
0.0011561
0.000954346
0.000843548
0.000885514
0.00318921
0.00302989
0.00294762
0.00316812
0.00349328
0.00539665
0.00504346
0.00481684
0.00492078
0.00531526
0.00709126
0.00668368
0.00634364
0.00627379
0.00643783
0.00804003
0.0077141
0.00737771
0.00721333
0.00718743
0.00839392
0.0082061
0.00797418
0.00782701
0.00770684
0.00807237
0.00815246
0.00815083
0.00816479
0.00808343
0.00686922
0.00734707