/*--------------------------------*- C++ -*----------------------------------*\
| =========                 |                                                 |
| \\      /  F ield         | OpenFOAM: The Open Source CFD Toolbox           |
|  \\    /   O peration     | Version:  2.3.1                                 |
|   \\  /    A nd           | Web:      www.OpenFOAM.org                      |
|    \\/     M anipulation  |                                                 |
\*---------------------------------------------------------------------------*/
FoamFile
{
    version     2.0;
    format      ascii;
    class       volScalarField;
    location    "600";
    object      epsilon;
}
// * * * * * * * * * * * * * * * * * * * * * * * * * * * * * * * * * * * * * //

dimensions      [0 2 -3 0 0 0 0];

internalField   nonuniform List<scalar> 
6852
(
0.00951763
0.00900475
0.00902936
0.00958058
0.0106417
0.0173685
0.0167048
0.016756
0.0174918
0.0188908
0.0150297
0.014569
0.0146209
0.0151562
0.0161435
0.0115366
0.0112933
0.0113397
0.0116568
0.0122803
0.0103512
0.0100957
0.0101464
0.0104879
0.0111565
0.0149714
0.0147187
0.0147625
0.0150936
0.0157855
0.0168198
0.0218188
0.0215273
0.021554
0.021893
0.0225902
0.0236516
0.0317671
0.0314403
0.031443
0.031772
0.0324495
0.0334909
0.0457963
0.0454206
0.0453861
0.0456936
0.0463295
0.047312
0.0652867
0.0648512
0.0647602
0.06502
0.0655593
0.0663953
0.0925168
0.0920138
0.0918417
0.0920136
0.0923656
0.092911
0.131257
0.130666
0.130378
0.130414
0.13046
0.130527
0.184655
0.183936
0.183468
0.183257
0.182767
0.181995
0.252537
0.251713
0.250969
0.250273
0.248835
0.246637
0.325236
0.324336
0.323011
0.321208
0.318195
0.314014
0.385512
0.384563
0.382519
0.379275
0.374277
0.367657
0.423177
0.422134
0.419295
0.414474
0.407399
0.398298
0.434441
0.433178
0.429502
0.423247
0.41429
0.403069
0.422209
0.420552
0.416033
0.408601
0.398195
0.385412
0.393581
0.39135
0.385998
0.377589
0.366259
0.352581
0.356631
0.353685
0.347505
0.338278
0.326316
0.312224
0.31809
0.314334
0.307316
0.297354
0.284911
0.270629
0.282403
0.277781
0.269886
0.259194
0.246298
0.23188
0.251825
0.246302
0.237468
0.225987
0.212575
0.19797
0.226989
0.220545
0.21069
0.198325
0.18429
0.169396
0.207478
0.200121
0.189168
0.175827
0.161061
0.145783
0.184093
0.172006
0.157637
0.142079
0.126367
0.171114
0.158013
0.142698
0.1264
0.110302
0.159812
0.146029
0.130021
0.113181
0.096856
0.148345
0.134801
0.118714
0.101766
0.0855097
0.135594
0.123595
0.108279
0.0918197
0.0760068
0.120914
0.112455
0.0988764
0.0835068
0.068441
0.104372
0.101519
0.0907628
0.0770559
0.062981
0.0941707
0.0947149
0.0859321
0.0734032
0.0600335
0.0959282
0.0950264
0.0856394
0.0727903
0.0592513
0.0936216
0.092709
0.0834939
0.0708047
0.0574134
0.0829117
0.0838058
0.0765957
0.0653899
0.053089
0.0666828
0.0702303
0.0659062
0.0570301
0.0464475
0.0507684
0.0565523
0.0546473
0.0478895
0.0397487
0.0385917
0.0459661
0.0467564
0.0427954
0.036554
0.0195415
0.0258151
0.0284948
0.0277378
0.0247182
0.0146783
0.014016
0.0140493
0.0147601
0.0161383
0.00650253
0.00637316
0.00638829
0.00653686
0.00681283
0.00501188
0.00498643
0.00499666
0.00503666
0.00512283
0.00533598
0.00529609
0.00530568
0.00535722
0.00543266
0.00500629
0.0050175
0.00502958
0.0050382
0.00506265
0.00569745
0.00569261
0.00570557
0.00573303
0.00577568
0.00710986
0.00709856
0.00711137
0.00714523
0.00719361
0.00724354
0.00859688
0.00858459
0.00859588
0.00862801
0.00867129
0.00871535
0.0102874
0.0102736
0.010282
0.01031
0.010345
0.0103782
0.0122471
0.0122325
0.012237
0.0122586
0.0122811
0.0122968
0.014353
0.0143327
0.0143306
0.0143441
0.0143514
0.0143434
0.0162719
0.0162389
0.0162272
0.016232
0.0162215
0.0161836
0.0185028
0.0184637
0.0184471
0.0184452
0.0184151
0.0183422
0.0215891
0.0215493
0.0215313
0.0215241
0.0214658
0.0213386
0.0271043
0.027102
0.0271765
0.0272932
0.0272162
0.0268941
0.0364083
0.036471
0.0365894
0.0366971
0.0364899
0.0359022
0.0457624
0.045886
0.0459826
0.0459857
0.0455601
0.0446414
0.0527821
0.0529802
0.0530398
0.0528895
0.0522074
0.050952
0.0564942
0.0567589
0.0567707
0.0564601
0.0555337
0.0539907
0.0570579
0.0573606
0.0573113
0.056851
0.0557316
0.0539806
0.0552695
0.0555706
0.0554439
0.0548407
0.0535905
0.0517129
0.0521058
0.0523632
0.0521375
0.0513944
0.0500365
0.0481171
0.0484397
0.0486108
0.0482552
0.0473628
0.045902
0.0439577
0.0449325
0.044969
0.0444379
0.043368
0.0417865
0.0398076
0.0420424
0.0418824
0.0411052
0.0398043
0.0380583
0.0360105
0.0400932
0.0396459
0.038511
0.0368911
0.0349065
0.0327323
0.039342
0.0384689
0.0368007
0.0347289
0.0323973
0.0300179
0.0385443
0.0360625
0.0333454
0.0305178
0.0278362
0.0400441
0.0363218
0.0327036
0.0291956
0.0261067
0.0431731
0.0375615
0.032715
0.0283153
0.02472
0.0479516
0.0395359
0.0331496
0.0276912
0.0235381
0.0543631
0.042031
0.0337543
0.0271385
0.0224329
0.0571475
0.0429811
0.0335592
0.0262559
0.0212173
0.056311
0.0422122
0.0324265
0.0249534
0.019822
0.0541822
0.0402558
0.0304222
0.0231016
0.0180896
0.0464291
0.0353197
0.0265109
0.0200193
0.0155736
0.0313816
0.0261026
0.0204701
0.0156934
0.0123824
0.0179747
0.0152042
0.012785
0.0107396
0.00923078
0.0134065
0.0107188
0.0086948
0.00758079
0.00672274
0.0182027
0.0158051
0.0127831
0.0100334
0.00789361
0.0521562
0.0593232
0.0581653
0.0518149
0.043398
0.0155979
0.0149219
0.0149502
0.0156672
0.0170302
0.00495197
0.00490715
0.00491665
0.00497506
0.00510307
0.0047226
0.00468604
0.00469123
0.00473426
0.00482255
0.00379602
0.00374937
0.00375228
0.00379929
0.00385819
0.00224025
0.00225238
0.00225736
0.00225354
0.00224901
0.00246934
0.00247907
0.00248479
0.00248543
0.00248044
0.00323985
0.00324859
0.00325463
0.00325691
0.00325116
0.00400983
0.00401955
0.00402519
0.00402566
0.00401465
0.00398689
0.00487927
0.00488982
0.00489444
0.00489186
0.00487366
0.00483439
0.00593173
0.0059454
0.00594971
0.00594355
0.00591638
0.0058625
0.00698198
0.0069883
0.00698872
0.00698078
0.00694933
0.00688566
0.00738049
0.00734844
0.00733641
0.00733176
0.00731006
0.00725554
0.00735433
0.00730527
0.00729503
0.00730313
0.00730522
0.00728209
0.00737698
0.00731187
0.00730058
0.00731934
0.00734193
0.00734669
0.00765036
0.00756668
0.00755009
0.00757764
0.00761607
0.0076393
0.008214
0.00811278
0.00809252
0.00815644
0.00821254
0.00822227
0.0094622
0.00938685
0.00939527
0.00948855
0.00955111
0.00952948
0.0109924
0.0109515
0.0109874
0.0110992
0.0111558
0.0110896
0.0123476
0.0123493
0.0124113
0.0125289
0.0125671
0.0124519
0.0132497
0.0132952
0.0133796
0.0134929
0.0135044
0.0133467
0.0136315
0.0137152
0.0138161
0.0139176
0.0139005
0.0137072
0.0135751
0.0136875
0.0137967
0.0138797
0.0138337
0.0136133
0.0132325
0.0133619
0.0134682
0.0135244
0.0134464
0.0132029
0.0127697
0.0129024
0.0129896
0.0130058
0.0128872
0.0126168
0.0123442
0.0124615
0.0125041
0.0124584
0.0122815
0.0119717
0.0121157
0.0121848
0.0121379
0.011992
0.0117259
0.0113534
0.0122695
0.0122278
0.0120088
0.0116977
0.0112914
0.0108198
0.0130899
0.0128081
0.0122535
0.011662
0.0110322
0.0104073
0.0142436
0.0130353
0.0119679
0.0109862
0.0101323
0.0170946
0.0145844
0.0127051
0.0111769
0.009993
0.0224481
0.0171467
0.013905
0.011577
0.00995341
0.0332052
0.0212392
0.0155823
0.0121256
0.00995426
0.0432619
0.0247867
0.0168911
0.0124573
0.00982921
0.0489843
0.026682
0.0173431
0.0123468
0.009463
0.0489444
0.0263464
0.0166912
0.0116597
0.00878042
0.0420633
0.023273
0.0147424
0.0103026
0.00774665
0.0280276
0.0175681
0.0116546
0.00840778
0.00646703
0.0121986
0.00999347
0.00781505
0.00626697
0.00515314
0.00794734
0.00617115
0.00538382
0.0047711
0.00425909
0.013455
0.00924001
0.00692939
0.00592492
0.00516215
0.069891
0.0691281
0.059593
0.0477375
0.0375001
0.0190691
0.0181895
0.0182205
0.0191462
0.0208671
0.00480281
0.00477556
0.00478541
0.00482882
0.00495019
0.00589377
0.00579537
0.00580171
0.00590491
0.006102
0.00346894
0.00341344
0.00341398
0.00346569
0.00353241
0.00100784
0.00100395
0.00100362
0.00100592
0.00100931
0.00092162
0.000925757
0.000927126
0.000925447
0.000920717
0.00129493
0.00130122
0.00130327
0.00130077
0.00129263
0.00172544
0.00173368
0.00173571
0.0017312
0.00171788
0.00229183
0.00230254
0.00230424
0.00229645
0.00227527
0.00313915
0.00315738
0.00316033
0.00314844
0.00311614
0.00305959
0.00434203
0.00435382
0.00435382
0.00434142
0.00430551
0.00423935
0.00572716
0.00562997
0.00560047
0.00560585
0.00560981
0.00558794
0.00619458
0.00601307
0.00601074
0.00609445
0.00622052
0.00634339
0.00646389
0.00624569
0.00625403
0.0063822
0.00657258
0.006766
0.00701102
0.00672881
0.00671265
0.00685138
0.00708004
0.00731363
0.00778913
0.0074409
0.00738852
0.00753357
0.00778866
0.00804454
0.00875186
0.00834575
0.00827063
0.00843591
0.00872326
0.00899594
0.00976329
0.0093393
0.00925434
0.00943796
0.00974186
0.0100053
0.0106536
0.0102401
0.0101644
0.0103644
0.0106669
0.0108933
0.0113039
0.0109254
0.0108751
0.0110868
0.0113696
0.0115364
0.0116759
0.0113481
0.0113332
0.0115506
0.0117985
0.0118899
0.0117902
0.0115215
0.0115463
0.0117624
0.0119638
0.0119705
0.0116994
0.0114911
0.011556
0.0117635
0.0119093
0.0118266
0.0114543
0.0113123
0.0114153
0.0116064
0.0116891
0.0115145
0.0111008
0.0110396
0.0111765
0.0113418
0.011354
0.0110863
0.0107182
0.0107364
0.0108939
0.0110172
0.0109489
0.0105856
0.0104006
0.0104818
0.0106287
0.0106796
0.0105141
0.010049
0.0103839
0.0104584
0.010492
0.0103951
0.0100955
0.00951146
0.0111141
0.0110003
0.010664
0.0102497
0.00974464
0.00900468
0.013025
0.0115421
0.0103958
0.00953623
0.00856419
0.0215211
0.0141795
0.0110223
0.00952647
0.00820332
0.0423126
0.0231108
0.0126388
0.00984499
0.00794878
0.0583629
0.0314884
0.0140718
0.0100358
0.00765858
0.0687961
0.0361136
0.0147673
0.00987636
0.00724114
0.0705919
0.0361925
0.0144251
0.00927885
0.0066529
0.063575
0.03216
0.0129698
0.00823296
0.00589148
0.052725
0.0257055
0.0107447
0.00690429
0.00503788
0.0227697
0.0124543
0.00736523
0.00532853
0.0041701
0.00863517
0.00645842
0.00511251
0.00425542
0.00363119
0.012695
0.00805879
0.00642908
0.00541055
0.00468246
0.0749242
0.0689865
0.0557106
0.0434325
0.033675
0.0195759
0.0186474
0.0187117
0.0197428
0.0216104
0.0068061
0.00662342
0.00663759
0.00684013
0.00725397
0.00807249
0.0078307
0.00785534
0.00812257
0.00860782
0.00362661
0.00356816
0.0035689
0.00362422
0.003698
0.000591838
0.000576909
0.000573926
0.00058182
0.000591755
0.000344833
0.000344052
0.000343767
0.000343843
0.000343393
0.000481202
0.000483252
0.000483561
0.00048207
0.000478359
0.000688533
0.000692495
0.000692883
0.000689656
0.000682081
0.00101883
0.00102605
0.00102657
0.00102041
0.00100609
0.00169032
0.00170764
0.00170963
0.00169843
0.00167199
0.00330513
0.00332269
0.0033235
0.00331106
0.00327996
0.00322908
0.00802582
0.0078052
0.00773464
0.00775378
0.00779623
0.00781741
0.00941885
0.00883665
0.00895478
0.0093741
0.00999294
0.0106769
0.00994941
0.00953061
0.00981652
0.0104548
0.0112745
0.0121177
0.0113856
0.0109374
0.0112619
0.0119084
0.012656
0.0133555
0.0126843
0.0121387
0.0123678
0.01296
0.013582
0.0140392
0.0135587
0.0130881
0.0133077
0.0138155
0.0142439
0.0144146
0.0140072
0.013712
0.0139395
0.0143389
0.0145663
0.0144711
0.0142212
0.0141203
0.0143671
0.0146613
0.0147009
0.0143775
0.0143335
0.0144145
0.0146704
0.0148543
0.0147165
0.0141985
0.0144713
0.0146738
0.0149127
0.0149744
0.0146652
0.0139793
0.0147216
0.0149571
0.0151425
0.0150639
0.0145847
0.0137513
0.015122
0.0153065
0.0153953
0.015154
0.0145031
0.0135379
0.0156778
0.0157492
0.015695
0.0152663
0.0144408
0.0133557
0.0163131
0.0162982
0.0160544
0.0154133
0.0144101
0.0132135
0.0171354
0.0169801
0.0164884
0.0156046
0.0144189
0.0131132
0.0182328
0.0178223
0.0170142
0.0158468
0.01447
0.0130496
0.0198956
0.0190417
0.0177199
0.016167
0.0145718
0.0130141
0.0224388
0.0210102
0.0188448
0.0166163
0.0147401
0.0129934
0.0292577
0.026079
0.0209428
0.0173007
0.015016
0.0129859
0.0464325
0.0291834
0.0186651
0.0155027
0.0129787
0.144551
0.0500615
0.022044
0.0163858
0.0130471
0.187668
0.058878
0.0243874
0.0167293
0.0129444
0.198777
0.0627996
0.0251685
0.0164613
0.0125623
0.197212
0.0619738
0.0245757
0.0156721
0.0119237
0.197359
0.0559537
0.0226695
0.0143614
0.0110372
0.197227
0.0526121
0.0204611
0.0127655
0.00995897
0.0598004
0.026659
0.0139226
0.0104218
0.00861293
0.0183419
0.011852
0.00957883
0.00838852
0.00739311
0.0230961
0.0158154
0.0113773
0.00909636
0.00782838
0.0748679
0.0740687
0.0651461
0.0532174
0.041839
0.00961088
0.00906114
0.00911501
0.00975661
0.0109232
0.0134439
0.0127312
0.0128255
0.0136845
0.0152967
0.0100403
0.00933222
0.00943284
0.0102763
0.0117867
0.00371937
0.00366949
0.0036708
0.00371926
0.00378582
0.000407997
0.000396829
0.000394937
0.000401485
0.000409324
0.000143192
0.000141872
0.0001415
0.000141993
0.000142656
0.00017749
0.000177718
0.000177592
0.000177087
0.000176013
0.000259193
0.000260504
0.00026041
0.00025892
0.000255822
0.00041152
0.000415645
0.000415881
0.000412485
0.000405243
0.000923273
0.00093812
0.00093947
0.00093035
0.00091129
0.00307555
0.00308831
0.00308724
0.00307751
0.00305831
0.0166827
0.0163393
0.016208
0.016222
0.0162759
0.0162937
0.0120016
0.0120749
0.0131199
0.0149237
0.017778
0.0214447
0.00792212
0.00921345
0.0120805
0.0163611
0.0221268
0.0295617
0.00819885
0.0103471
0.0145644
0.0198758
0.0259852
0.0333636
0.00752428
0.0102973
0.0145297
0.0194077
0.0248907
0.0314839
0.00797306
0.0120721
0.016507
0.0210499
0.0260197
0.0319547
0.0102221
0.0146086
0.0191093
0.0235197
0.0281561
0.0335836
0.0134664
0.0181827
0.0227089
0.0269058
0.0311413
0.0360133
0.0178591
0.0228166
0.0272814
0.0311696
0.0349197
0.0391705
0.0235414
0.0286222
0.0328931
0.0363336
0.0394725
0.0429987
0.0307481
0.0358268
0.0396999
0.0424884
0.0448335
0.0474827
0.0399086
0.0447815
0.0479454
0.0497827
0.0510736
0.0526308
0.0517169
0.0560015
0.0579818
0.0584339
0.0583051
0.0584767
0.0673443
0.0702869
0.070334
0.0687609
0.0666945
0.0650797
0.0882566
0.088743
0.0856998
0.0811756
0.0764466
0.0725003
0.117286
0.113434
0.105242
0.0962871
0.0878172
0.0807731
0.156703
0.145964
0.129892
0.114523
0.100932
0.0897995
0.219725
0.194994
0.162892
0.136924
0.11594
0.099331
0.289856
0.250969
0.203105
0.162258
0.132358
0.108769
0.494059
0.39475
0.264644
0.19223
0.149377
0.116998
0.397589
0.372535
0.221076
0.167332
0.123195
0.392576
0.420678
0.229747
0.172456
0.122629
0.377732
0.425259
0.223722
0.166157
0.116017
0.358772
0.400624
0.205888
0.151146
0.104558
0.340785
0.33352
0.17045
0.126824
0.0885909
0.349402
0.235502
0.125423
0.0957378
0.0688996
0.191882
0.125251
0.0894586
0.0704697
0.0537888
0.0958466
0.0862951
0.0706285
0.0577021
0.0452772
0.0733231
0.068501
0.0600344
0.0505603
0.0409466
0.0377621
0.0402749
0.0377866
0.0328825
0.0270995
0.00333906
0.00333904
0.00333884
0.00333868
0.00334099
0.000212407
0.000209262
0.000208539
0.000210039
0.000212093
6.23454e-05
6.17407e-05
6.15726e-05
6.18166e-05
6.22687e-05
6.92191e-05
6.89787e-05
6.88388e-05
6.8783e-05
6.8722e-05
9.17522e-05
9.17976e-05
9.16286e-05
9.12265e-05
9.05128e-05
0.000132349
0.000133162
0.000133057
0.00013208
0.000130221
0.000350323
0.000354516
0.000354851
0.000351757
0.000345578
0.00364968
0.00366152
0.00366297
0.00365585
0.00364211
0.631311
0.52144
0.909636
0.882811
0.846158
0.814163
0.307681
0.001226
0.00122589
0.00122583
0.00122583
0.00122605
6.70396e-05
6.67473e-05
6.66844e-05
6.6841e-05
6.71303e-05
2.89662e-05
2.87645e-05
2.87221e-05
2.88349e-05
2.90751e-05
3.27299e-05
3.25388e-05
3.24683e-05
3.25105e-05
3.26407e-05
3.80341e-05
3.79097e-05
3.78208e-05
3.77549e-05
3.76922e-05
4.81016e-05
4.81017e-05
4.80103e-05
4.78139e-05
4.75005e-05
7.48218e-05
7.49549e-05
7.49209e-05
7.47129e-05
7.43411e-05
0.00121705
0.00121713
0.00121707
0.00121685
0.00121658
1.3726
1.35267
0.377855
1.94721
1.83997
1.77146
1.75488
0.777187
0.00175187
0.00148923
0.00122776
0.000981541
0.000760102
0.00329167
0.00283879
0.00237339
0.00192571
0.00151636
0.00167601
0.00143819
0.00119585
0.000963238
0.000750804
0.000166039
0.000106593
8.52018e-05
7.39243e-05
6.97605e-05
0.000946148
0.000599175
0.000313804
0.000157475
0.000151788
0.00175705
0.00125909
0.000790831
0.000437188
0.000248446
0.0024425
0.00183387
0.00123497
0.000741968
0.000449163
0.000400711
0.00307896
0.00236828
0.00165887
0.00105023
0.000666505
0.000573184
0.0036549
0.00287917
0.00209418
0.00138689
0.000911837
0.000787655
0.0041442
0.00336402
0.00255845
0.00177879
0.0012009
0.00105329
0.00448744
0.00380853
0.00308023
0.00226264
0.00156011
0.00138168
0.00462932
0.00412757
0.00363537
0.00283928
0.00203672
0.00178459
0.00334097
0.003772
0.00402605
0.00347985
0.0026407
0.00226629
0.00118495
0.0013955
0.00318736
0.00400747
0.00331696
0.0028051
0.000768717
0.000796323
0.00253795
0.00447471
0.00395507
0.00334635
0.00191663
0.0047125
0.00442972
0.00381651
0.00191248
0.00461002
0.00469603
0.00418466
0.00193133
0.00453248
0.00490257
0.00451017
0.00217942
0.00469985
0.00517993
0.0048719
0.00283478
0.00528213
0.00563072
0.00534465
0.0043358
0.00639168
0.00637297
0.00599181
0.00944205
0.00861342
0.00748853
0.00685456
0.0397917
0.0159364
0.00925748
0.00798509
2.95839
3.3063
0.658467
0.0465815
0.0119291
0.00934222
0.425909
1.7048
0.590233
0.0669462
0.0143314
0.0107044
0.321849
1.52767
0.472951
0.0720328
0.0159381
0.0118524
0.316659
1.47238
0.408848
0.0691936
0.0167832
0.0126478
1.49563
0.299648
0.0591529
0.0170905
0.0130545
1.37993
0.36275
0.0549849
0.0171204
0.0129944
0.454382
0.0867734
0.0363797
0.0167669
0.0125211
0.0533244
0.0295485
0.0207006
0.0139324
0.0109095
0.0180344
0.015949
0.0130578
0.0106225
0.00867231
0.00831722
0.00776739
0.00647775
0.00524346
0.00430673
0.00398355
0.00351825
0.00301438
0.00250892
0.00202942
0.00115644
0.00109613
0.00101445
0.000917378
0.000811088
0.00365993
0.00329899
0.00288035
0.00243657
0.00199712
0.000395837
0.000224084
0.000172641
0.00016571
0.000164898
0.000678704
0.000532986
0.000404012
0.000293451
0.000199765
0.000798494
0.00066875
0.000538702
0.000418958
0.000321907
0.000878225
0.000760573
0.000635529
0.000513192
0.000410971
0.000942958
0.000835349
0.000712458
0.000587083
0.000480535
0.000414654
0.00105133
0.000936945
0.000800214
0.000656441
0.000537414
0.000464687
0.00120891
0.00107555
0.00091441
0.000740889
0.000593401
0.000508346
0.00145184
0.00128684
0.0010874
0.00086554
0.000661991
0.000553519
0.00200112
0.00172239
0.0014159
0.00108079
0.000767856
0.000601928
0.00222923
0.00228514
0.00192871
0.00141929
0.000908012
0.000643156
0.000939883
0.00120447
0.00193592
0.00171293
0.000978688
0.000681737
0.000204787
0.000274428
0.00171119
0.00181955
0.001005
0.000716772
0.00305809
0.00177979
0.00101606
0.00074857
0.00267677
0.00163732
0.00100078
0.000778337
0.00252722
0.00146142
0.000964195
0.000808378
0.00265951
0.00131415
0.000932345
0.000840658
0.00309693
0.00119829
0.000935907
0.000878465
0.00417112
0.00118658
0.000967014
0.000924585
0.00930379
0.0014407
0.00103237
0.000982218
0.0840077
0.00458248
0.00121636
0.00105874
4.19846
4.95129
0.955859
0.0509772
0.00236057
0.00117362
0.509167
1.64367
0.853646
0.0625892
0.00332216
0.00129584
0.302172
1.31345
0.719092
0.0575121
0.00365217
0.00139435
0.293418
1.26096
0.641039
0.0501147
0.00356394
0.00146638
0.36154
1.3315
0.564012
0.0410598
0.00321966
0.00151658
1.54226
0.527063
0.037543
0.00298008
0.00156774
0.620383
0.139116
0.0161764
0.00250535
0.00165097
0.05056
0.0221465
0.00607427
0.00214807
0.00174771
0.00607095
0.00447665
0.00302002
0.00208454
0.00191874
0.0140872
0.0121243
0.00922252
0.00724449
0.00603979
0.00521581
0.00475153
0.0041994
0.00360573
0.00301023
0.00103508
0.000983847
0.000919307
0.000844045
0.000761796
0.00459922
0.00430851
0.00390834
0.0034339
0.00292386
0.000738623
0.000412162
0.000228721
0.00020734
0.000216307
0.000896614
0.000686644
0.000511741
0.000380951
0.000278014
0.000888451
0.000745477
0.000606822
0.000486999
0.000397252
0.000845698
0.000744641
0.000641424
0.000546405
0.000474308
0.000800141
0.000726264
0.000650468
0.000578448
0.000523229
0.000792585
0.000731415
0.000666559
0.00060414
0.000557792
0.000531114
0.000873864
0.000802167
0.000722841
0.000647864
0.000593716
0.000561089
0.00116752
0.0010294
0.000878564
0.000744904
0.000651109
0.000597441
0.00191002
0.00159538
0.00123933
0.000946002
0.000750113
0.000646139
0.00183503
0.00194984
0.00165163
0.00121968
0.000878941
0.000694036
0.000834344
0.00108187
0.00158682
0.00139132
0.000964347
0.000715993
0.000211449
0.000288861
0.00133793
0.00141047
0.000934362
0.000712286
0.00329104
0.00131867
0.000870442
0.000696067
0.00273529
0.00119778
0.000806787
0.000679311
0.00254822
0.00107269
0.000753145
0.000668503
0.00266614
0.000984211
0.000715585
0.000664656
0.00308368
0.000937787
0.000700767
0.000667757
0.00404399
0.000959041
0.000706939
0.000677451
0.0107434
0.00134967
0.000753113
0.000695458
0.13754
0.00744575
0.00104099
0.000734065
5.46344
5.83345
1.27769
0.09491
0.00365852
0.000851323
0.665878
1.64739
1.03683
0.115566
0.00575811
0.000967751
0.291225
1.14595
0.861841
0.106151
0.00620858
0.00102299
0.272603
1.08788
0.773906
0.0915914
0.00567159
0.0010258
0.342793
1.20069
0.701681
0.0720188
0.00454336
0.000987982
1.24053
1.56465
0.617601
0.0596722
0.00362525
0.000949588
0.714801
0.202917
0.0256911
0.00232558
0.000928313
0.132425
0.0445593
0.00841979
0.00152994
0.000981531
0.0114844
0.00799026
0.00309516
0.00151337
0.0013113
0.0150511
0.0122808
0.00919731
0.00735349
0.00632174
0.00580541
0.00536114
0.004817
0.0042139
0.0035916
0.00112449
0.00106186
0.000988708
0.000906953
0.000819194
0.00495044
0.00474029
0.0043995
0.00395716
0.00345176
0.00125532
0.000704398
0.000354233
0.000267124
0.000291213
0.0012283
0.000933317
0.000677138
0.00049517
0.000368568
0.00109558
0.000926061
0.000753428
0.000607787
0.00050921
0.000976369
0.000871182
0.000760599
0.00066176
0.000595445
0.000893056
0.000822241
0.000749322
0.000685186
0.000646983
0.000871518
0.000811331
0.000752663
0.000704961
0.000681708
0.000977276
0.000895599
0.000814762
0.000752508
0.000722655
0.000710448
0.0013838
0.00119926
0.00101364
0.000873047
0.000795968
0.000759569
0.00206652
0.00181442
0.00142468
0.00110922
0.000923515
0.000832137
0.00157583
0.0017934
0.00169714
0.0013649
0.00108625
0.000915758
0.000828793
0.00105935
0.00148037
0.00145387
0.00121096
0.000974972
0.000268879
0.000352146
0.00121553
0.00142425
0.00120277
0.000983684
0.00396584
0.00135682
0.0011177
0.000949456
0.00326233
0.00126244
0.00102404
0.000901105
0.00302391
0.00116659
0.00094652
0.000861115
0.00310977
0.00110922
0.000893712
0.000832991
0.00349468
0.00109239
0.000862065
0.00081642
0.00450048
0.00115476
0.000855995
0.000810048
0.0139942
0.00180961
0.000916381
0.000816411
0.20161
0.0127535
0.0014318
0.00085804
6.50493
6.09663
1.50917
0.150162
0.00664139
0.0010567
0.878253
1.67158
1.14692
0.177503
0.0105744
0.00124915
0.291764
1.01957
0.937273
0.157938
0.0110545
0.00131601
0.254587
0.948641
0.844647
0.134476
0.00981307
0.0012812
0.325766
1.09228
0.771952
0.102939
0.00747337
0.00116717
1.08483
1.50011
0.655035
0.07989
0.00551102
0.00104287
0.835697
0.750423
0.248349
0.0359325
0.00318946
0.000925004
0.187661
0.0653893
0.0120588
0.00177537
0.000894353
0.0286047
0.0132543
0.00398728
0.0015422
0.00124882
0.0165991
0.012936
0.00943213
0.00770584
0.00689408
0.00601153
0.00557096
0.00504472
0.00446224
0.00385559
0.00119445
0.00112165
0.00104193
0.000956759
0.000866875
0.00498199
0.00483105
0.00454864
0.00415426
0.00368296
0.00193298
0.00109083
0.00054967
0.000366647
0.000417627
0.00159077
0.00121889
0.000883556
0.000643297
0.000485717
0.00130935
0.00112706
0.000933055
0.000767018
0.000664117
0.00113283
0.0010346
0.000924352
0.000825196
0.00076803
0.00105038
0.000982145
0.000910774
0.000851969
0.000825775
0.00106453
0.000993838
0.000927029
0.000879704
0.000864739
0.00125091
0.001134
0.00102363
0.000947033
0.00091601
0.00175373
0.0015245
0.00128348
0.00110645
0.00101354
0.000959962
0.00210223
0.00204404
0.00171293
0.00138487
0.00118201
0.00106123
0.00140766
0.00168735
0.00182133
0.00163232
0.00139543
0.00118933
0.000890179
0.00112175
0.00147673
0.0016588
0.00156175
0.00129528
0.000317884
0.000417368
0.00125593
0.00160199
0.00157191
0.00132385
0.00500947
0.00158338
0.00146485
0.00127846
0.00416179
0.00150365
0.00133729
0.00120425
0.00382625
0.00141266
0.00122794
0.00113018
0.00383078
0.00135802
0.00115056
0.00107157
0.00413205
0.00134422
0.00110375
0.00103102
0.00514683
0.00143274
0.00108772
0.00100599
0.0177725
0.00251745
0.00117425
0.00100024
0.26753
0.0214797
0.00207505
0.00105174
7.15404
5.98026
1.61096
0.227337
0.011929
0.00139287
1.11597
1.69888
1.1871
0.256365
0.0191056
0.0017282
0.304769
0.928247
0.966207
0.214875
0.0192835
0.00181762
0.239758
0.838771
0.87501
0.178321
0.0164445
0.00171158
0.310729
0.999874
0.800704
0.133553
0.011894
0.00145924
0.958911
1.38928
0.6593
0.0982787
0.00809275
0.00120825
0.816808
0.746383
0.277925
0.0458446
0.00434832
0.000994998
0.248246
0.225093
0.0832742
0.0158704
0.002165
0.000909858
0.0449623
0.0188221
0.00502275
0.00166894
0.0012934
0.0203794
0.0141639
0.00980552
0.00815645
0.00762393
0.0060878
0.00562252
0.00509857
0.00453326
0.00394861
0.0012506
0.00116407
0.00107578
0.000986622
0.000895126
0.00490868
0.00479293
0.0045528
0.00419915
0.00376295
0.00276612
0.00158079
0.000816666
0.00052881
0.000622081
0.00195692
0.00152866
0.00112273
0.000826508
0.000635648
0.00152103
0.00134428
0.00114239
0.000965197
0.000863303
0.00132465
0.00123514
0.00112862
0.00103449
0.000986606
0.00127321
0.00120026
0.0011256
0.00106894
0.00104764
0.001349
0.00125285
0.001165
0.00110686
0.00108678
0.00161869
0.00145705
0.00130345
0.00119668
0.00114671
0.00208611
0.00189143
0.00161734
0.00139762
0.00127078
0.00201448
0.00218432
0.00202525
0.00171796
0.00148655
0.00130245
0.00132139
0.00164214
0.00197252
0.00196476
0.00175504
0.00148067
0.000992309
0.0012495
0.00154493
0.00195067
0.00195729
0.00163061
0.000358404
0.00048563
0.00142985
0.00188358
0.00196341
0.00167293
0.00643597
0.00191088
0.00182594
0.0016066
0.00544434
0.00182699
0.00165946
0.0014998
0.00495411
0.00172076
0.00151573
0.00139548
0.00482653
0.00165025
0.00141107
0.00130984
0.00499821
0.00162271
0.00134268
0.00124505
0.00599825
0.0017256
0.00131522
0.00119847
0.021828
0.00325878
0.00143781
0.00117714
0.329915
0.0299012
0.00281443
0.00123868
7.34815
5.64948
1.60666
0.271882
0.0173288
0.00174502
1.34571
1.72152
1.18493
0.312415
0.0280536
0.00226518
0.328748
0.865111
0.958931
0.270552
0.0285419
0.00238781
0.228327
0.752999
0.876713
0.22018
0.0240065
0.00218611
0.29769
0.919108
0.802416
0.162765
0.0170263
0.00178139
0.855529
1.26042
0.645393
0.115151
0.0111051
0.00139728
0.777318
0.719016
0.295615
0.0555252
0.00576427
0.00108764
0.282904
0.248078
0.0980623
0.0199621
0.00267179
0.000951422
0.0688846
0.0595524
0.0244936
0.00623728
0.00183702
0.00136567
0.0261182
0.0160526
0.010309
0.0086389
0.00845084
0.00616413
0.00564964
0.00510799
0.00454544
0.00397396
0.00130859
0.00120434
0.00110414
0.00100806
0.000913085
0.0048297
0.00473307
0.00452033
0.00419572
0.00378577
0.00376789
0.00220488
0.00117867
0.00078304
0.00092625
0.00232146
0.00186211
0.00139569
0.00104753
0.000816193
0.00175413
0.00159139
0.00138664
0.00120545
0.00110165
0.00157367
0.00148405
0.00137846
0.001288
0.00123889
0.0015709
0.00147838
0.00138992
0.00132642
0.00129374
0.00170537
0.00157167
0.00145096
0.00136945
0.00132337
0.00200673
0.00182221
0.00162639
0.00147885
0.00138569
0.00227709
0.00223356
0.00197965
0.00172107
0.00153291
0.00189645
0.00225167
0.00233866
0.00208429
0.00179309
0.00130654
0.00166454
0.00214517
0.00233765
0.00211205
0.00175754
0.00112078
0.00143082
0.00167975
0.0023013
0.0023384
0.00193368
0.000393556
0.000562467
0.00172828
0.00222589
0.0023201
0.00197481
0.00826327
0.00228938
0.00214811
0.00188054
0.00714437
0.00218681
0.0019427
0.00173843
0.00644719
0.00205072
0.00176319
0.00159875
0.00614864
0.00195087
0.00162697
0.00148014
0.00617327
0.00189773
0.00153072
0.00138568
0.00720995
0.00200373
0.00148208
0.00131345
0.0264905
0.00394539
0.00162239
0.00127297
0.381891
0.0364343
0.00338993
0.00134071
7.13259
5.18376
1.51922
0.282372
0.0209358
0.0019802
1.54182
1.74477
1.15494
0.343296
0.0357975
0.00275183
0.360602
0.823919
0.9323
0.310644
0.0379277
0.00301667
0.220282
0.68666
0.856768
0.257664
0.0325536
0.0027784
0.286509
0.847345
0.785693
0.189486
0.0231551
0.00221229
0.76939
1.13093
0.62181
0.130695
0.0148032
0.00165883
0.729121
0.679499
0.304662
0.0650421
0.00756943
0.00121887
0.302959
0.260422
0.110046
0.0243456
0.00333106
0.00101023
0.0880939
0.072013
0.0301246
0.00764417
0.00204499
0.00144988
0.042503
0.0338719
0.0188217
0.0110838
0.00920983
0.00938441
0.00629734
0.00571513
0.00513843
0.00456348
0.00399262
0.00137755
0.0012522
0.00113692
0.00103076
0.000929762
0.00478746
0.00470091
0.00450509
0.00419917
0.00380526
0.00494336
0.00299819
0.00168548
0.00116522
0.00134851
0.00270649
0.00222156
0.00170423
0.00130623
0.00102211
0.00203298
0.00187424
0.00166826
0.00148703
0.00135397
0.00188462
0.0017822
0.00167006
0.00157956
0.00149263
0.00192852
0.00180491
0.00169213
0.00161369
0.00153039
0.00209592
0.00192681
0.00176738
0.0016531
0.00154633
0.00234413
0.00219304
0.00197093
0.0017764
0.00161006
0.00235079
0.00251429
0.00234849
0.00205589
0.00177904
0.00180161
0.00229624
0.00264668
0.00245884
0.00207674
0.00135195
0.0017555
0.00234471
0.00272051
0.00242904
0.00127021
0.00166281
0.00188222
0.00267257
0.00265145
0.00217041
0.000428417
0.00065407
0.00215406
0.00257298
0.00260213
0.00219123
0.0104951
0.00267787
0.00239758
0.00206384
0.00930305
0.00255319
0.00215839
0.00188891
0.00836368
0.00237944
0.00194677
0.00171948
0.00786697
0.00224182
0.00178092
0.00157513
0.00774473
0.00215619
0.00165836
0.00145909
0.00890734
0.00225917
0.00159072
0.00136995
0.0318352
0.00453432
0.00174606
0.00131865
0.418967
0.0404248
0.00381598
0.0013974
6.61093
4.65878
1.38143
0.268517
0.0227603
0.00213892
1.70932
1.75599
1.10642
0.353127
0.0418604
0.00321539
0.39812
0.798806
0.895642
0.335036
0.0467294
0.00373082
0.215497
0.635784
0.823391
0.287098
0.0415567
0.00352985
0.276981
0.783165
0.757264
0.212568
0.0301078
0.00280064
0.696719
1.01032
0.593761
0.144908
0.0192115
0.00203135
0.678804
0.635218
0.307742
0.074376
0.00982653
0.00140654
0.312654
0.265363
0.119653
0.0290212
0.00417937
0.00108795
0.104378
0.0825133
0.0356866
0.00928116
0.00230314