/*--------------------------------*- C++ -*----------------------------------*\
| =========                 |                                                 |
| \\      /  F ield         | OpenFOAM: The Open Source CFD Toolbox           |
|  \\    /   O peration     | Version:  2.3.1                                 |
|   \\  /    A nd           | Web:      www.OpenFOAM.org                      |
|    \\/     M anipulation  |                                                 |
\*---------------------------------------------------------------------------*/
FoamFile
{
    version     2.0;
    format      ascii;
    class       volScalarField;
    location    "600";
    object      k;
}
// * * * * * * * * * * * * * * * * * * * * * * * * * * * * * * * * * * * * * //

dimensions      [0 2 -2 0 0 0 0];

internalField   nonuniform List<scalar> 
6852
(
0.0178
0.0171547
0.0171859
0.0178784
0.0191752
0.0167452
0.0163158
0.0163491
0.0168243
0.0177098
0.015206
0.0148936
0.014929
0.0152912
0.0159482
0.0127477
0.0125679
0.0126023
0.0128362
0.0132899
0.0118589
0.0116629
0.0117019
0.011963
0.0124661
0.0151666
0.0149955
0.0150252
0.0152491
0.0157116
0.0163906
0.0194955
0.0193215
0.0193375
0.0195397
0.0199524
0.0205726
0.0250438
0.0248717
0.0248731
0.0250464
0.0254011
0.0259417
0.0319596
0.0317846
0.0317685
0.0319118
0.0322072
0.0326609
0.0404822
0.040302
0.0402643
0.0403719
0.0405948
0.0409392
0.0510734
0.0508881
0.0508247
0.050888
0.0510178
0.0512184
0.0644856
0.064292
0.0641975
0.0642091
0.0642242
0.0642462
0.0809633
0.080753
0.080616
0.0805542
0.0804105
0.0801839
0.0997541
0.0995372
0.0993409
0.0991572
0.098777
0.0981944
0.118081
0.117863
0.117542
0.117104
0.116371
0.115349
0.132253
0.132036
0.131568
0.130823
0.129671
0.128138
0.140733
0.140502
0.139871
0.138797
0.137213
0.135162
0.143219
0.142942
0.142132
0.140749
0.138756
0.136239
0.140518
0.14015
0.139145
0.137482
0.135138
0.132231
0.134092
0.133585
0.132364
0.130435
0.127813
0.12461
0.125563
0.12487
0.123412
0.121217
0.118342
0.11491
0.116345
0.115428
0.113703
0.111232
0.108107
0.104463
0.107472
0.106296
0.104272
0.1015
0.0981043
0.0942374
0.0995665
0.0981055
0.0957454
0.0926339
0.0889317
0.0848102
0.0929076
0.0911408
0.088405
0.0849114
0.0808566
0.0764394
0.0875042
0.0854233
0.0822772
0.0783619
0.073911
0.0691596
0.0807991
0.0772224
0.0728596
0.0679832
0.0628739
0.0769552
0.0729753
0.0681804
0.0628849
0.0574252
0.0735281
0.0692374
0.0640803
0.0584204
0.0526581
0.0699676
0.0656413
0.0603089
0.0544232
0.0484609
0.0658983
0.061951
0.0567209
0.0508165
0.0448005
0.0610517
0.0581703
0.0533879
0.0477011
0.0417758
0.0553481
0.054335
0.0504258
0.0452118
0.0395233
0.0516803
0.0518792
0.0486203
0.0437714
0.0382804
0.0523213
0.0519929
0.0485099
0.0435274
0.0379472
0.0514792
0.0511441
0.0476962
0.0427322
0.0371583
0.0474743
0.0478149
0.0450316
0.0405249
0.0352682
0.0410573
0.0425008
0.0407379
0.0369928
0.0322618
0.0342329
0.0367859
0.0359551
0.0329262
0.0290801
0.0285131
0.0320385
0.0324047
0.0305477
0.0275003
0.0287546
0.0346192
0.0369753
0.0363175
0.0336315
0.014968
0.0145144
0.0145373
0.0150236
0.0159449
0.0108579
0.0107912
0.0108137
0.0109121
0.0111121
0.0102929
0.0102955
0.0103186
0.0103512
0.0104214
0.0108467
0.0108508
0.0108803
0.0109219
0.0109699
0.0131926
0.0133186
0.0133628
0.0133154
0.0132521
0.0170731
0.0171598
0.017207
0.0172074
0.0171884
0.0211684
0.0212318
0.0212722
0.0212829
0.0212705
0.021213
0.0244769
0.0245306
0.0245618
0.0245648
0.0245372
0.0244612
0.027265
0.0273121
0.0273337
0.0273242
0.0272759
0.0271729
0.0295066
0.0295525
0.0295658
0.0295409
0.0294666
0.0293288
0.0307256
0.0307667
0.0307707
0.0307308
0.0306304
0.0304539
0.0304797
0.0305098
0.0305045
0.0304538
0.0303341
0.030127
0.0298593
0.0298863
0.0298786
0.0298243
0.0296956
0.0294735
0.0295839
0.0296086
0.029602
0.0295498
0.0294178
0.0291871
0.0301735
0.0302066
0.0302267
0.0302129
0.0300841
0.0298128
0.0319832
0.0320338
0.0320693
0.0320574
0.0319046
0.0315804
0.0339838
0.034049
0.0340817
0.0340506
0.0338508
0.0334523
0.0355721
0.035659
0.0356865
0.0356225
0.0353601
0.034876
0.0364349
0.0365446
0.0365635
0.0364599
0.0361292
0.0355598
0.0365176
0.0366441
0.0366482
0.0365011
0.0361062
0.0354609
0.035948
0.03608
0.0360607
0.0358639
0.0354146
0.034706
0.0349449
0.0350675
0.0350132
0.0347594
0.0342538
0.0335027
0.0337446
0.0338404
0.033735
0.033413
0.032845
0.0320507
0.0325596
0.0326073
0.0324282
0.0320205
0.0313772
0.0305316
0.0315666
0.031538
0.0312522
0.0307319
0.0299909
0.0290773
0.0309142
0.0307689
0.030326
0.0296517
0.0287786
0.0277706
0.0307404
0.0304163
0.0297372
0.0288478
0.0277921
0.0266531
0.0305947
0.0295524
0.0283586
0.0270503
0.0257338
0.0314338
0.0298221
0.0281975
0.0265443
0.0249954
0.0330563
0.0305611
0.0283404
0.0262337
0.0243977
0.0356155
0.031725
0.0287121
0.026044
0.0238807
0.0390355
0.0331818
0.0291615
0.025866
0.0233685
0.0408876
0.0339076
0.0291779
0.0254705
0.0227488
0.0409213
0.0336847
0.028626
0.0247732
0.0219661
0.0399356
0.0326693
0.0275224
0.023727
0.0209764
0.0359112
0.0300671
0.0254159
0.0220391
0.0195934
0.0277099
0.0250091
0.0220945
0.019631
0.0177732
0.0199621
0.0185713
0.017443
0.016426
0.01543
0.0168979
0.0152641
0.0140836
0.013418
0.0128549
0.0189178
0.0172532
0.0154081
0.0137993
0.0125428
0.034854
0.0379779
0.0374821
0.0347017
0.0308338
0.0155869
0.0151332
0.0151523
0.015633
0.016527
0.00960985
0.00959381
0.00960873
0.00964761
0.00975068
0.00926531
0.00923019
0.00923867
0.0092856
0.00936896
0.00760927
0.00758293
0.00759589
0.00764007
0.00768684
0.00819063
0.00831003
0.00834412
0.0082889
0.00821209
0.0118616
0.0119575
0.0119954
0.0119731
0.0119176
0.0161346
0.0162056
0.0162363
0.0162243
0.0161741
0.0195436
0.0196035
0.0196252
0.019606
0.019539
0.0194091
0.0224206
0.0224751
0.0224877
0.0224551
0.0223616
0.0221911
0.0246631
0.0247251
0.0247336
0.0246851
0.0245583
0.0243362
0.0251021
0.0251639
0.0251668
0.0251049
0.0249481
0.0246748
0.0234831
0.0235249
0.0235227
0.0234624
0.0233056
0.023027
0.0217035
0.021731
0.0217338
0.021689
0.0215587
0.021318
0.0205741
0.0205701
0.0205692
0.0205426
0.0204485
0.0202593
0.0201024
0.0200581
0.0200431
0.0200291
0.0199697
0.0198308
0.020055
0.0199688
0.0199336
0.0199336
0.0199038
0.0198019
0.0203168
0.020201
0.0201504
0.0201525
0.0201426
0.0200724
0.0205946
0.0204537
0.020389
0.0203912
0.0203951
0.0203459
0.0207353
0.020578
0.0205038
0.0205052
0.020516
0.0204769
0.0206757
0.0205099
0.0204314
0.0204319
0.0204433
0.0204058
0.0204168
0.0202485
0.02017
0.0201697
0.0201776
0.0201337
0.0199978
0.0198318
0.0197568
0.0197551
0.0197558
0.0196996
0.0194758
0.0193167
0.0192472
0.0192421
0.0192307
0.0191557
0.0189144
0.0187667
0.0187018
0.0186883
0.0186572
0.0185544
0.018382
0.0182479
0.0181812
0.0181487
0.0180851
0.0179417
0.0179638
0.0178367
0.0177492
0.0176759
0.0175585
0.0173555
0.0177781
0.017632
0.0174787
0.0173235
0.017117
0.0168267
0.0180189
0.0177852
0.0174667
0.0171531
0.0167992
0.0163806
0.0185331
0.0178438
0.0172356
0.0166419
0.0160363
0.020231
0.0187732
0.0176439
0.0166739
0.0158029
0.0236717
0.0204753
0.0184292
0.0168943
0.0156658
0.0303447
0.0232782
0.0195981
0.0172636
0.0155857
0.0364327
0.0257112
0.0205213
0.0174836
0.0154216
0.0400327
0.0270638
0.0208549
0.0173725
0.0150719
0.0402524
0.0269251
0.0204121
0.0168264
0.0144777
0.0365603
0.0250377
0.0190945
0.0158013
0.0136289
0.0285917
0.0214152
0.0169679
0.0143746
0.012593
0.0179805
0.0159677
0.0140473
0.0126409
0.0114898
0.014189
0.0128395
0.0120421
0.0113989
0.0107913
0.01617
0.0138831
0.0125571
0.0118313
0.0112161
0.0423639
0.042055
0.038093
0.0328565
0.0279728
0.0178211
0.0172688
0.0172884
0.0178691
0.0189244
0.00936751
0.00936111
0.00937209
0.00939793
0.00949891
0.0100977
0.00998197
0.00998248
0.0100925
0.0102776
0.00642849
0.00637499
0.00637763
0.0064308
0.0064943
0.00482447
0.00489048
0.00490677
0.0048724
0.00483071
0.0072637
0.0073306
0.00735173
0.00732764
0.00728313
0.0107176
0.0107673
0.0107832
0.010765
0.0107187
0.0134926
0.0135367
0.0135459
0.0135194
0.0134528
0.0159057
0.0159517
0.0159548
0.0159132
0.0158144
0.0177472
0.0178161
0.0178212
0.017763
0.017624
0.0173879
0.0171801
0.0172583
0.0172633
0.0171953
0.0170279
0.0167435
0.0158273
0.0158414
0.0158374
0.0157939
0.0156696
0.0154432
0.0150385
0.0149291
0.0149409
0.0149734
0.0149636
0.0148723
0.0150179
0.0148266
0.0148295
0.0149052
0.0149651
0.0149532
0.0158924
0.0155919
0.0155478
0.0156392
0.0157574
0.0158053
0.0173641
0.0169644
0.016866
0.0169706
0.0171371
0.0172253
0.0191675
0.0186821
0.0185294
0.0186414
0.0188419
0.0189463
0.0209351
0.0203849
0.0201848
0.0202916
0.020499
0.0205861
0.0223845
0.0217942
0.0215647
0.0216595
0.0218487
0.0218851
0.0233968
0.0227916
0.0225506
0.0226288
0.0227778
0.0227364
0.0239702
0.0233724
0.0231353
0.0231944
0.0232871
0.0231481
0.0241573
0.0235881
0.0233684
0.0234072
0.0234326
0.0231834
0.0240232
0.0235033
0.0233142
0.0233332
0.0232845
0.0229182
0.0236252
0.0231766
0.0230319
0.0230332
0.0229069
0.0224206
0.0230069
0.0226571
0.0225706
0.0225565
0.0223512
0.0217457
0.0222342
0.0220018
0.0219803
0.0219471
0.0216607
0.0209379
0.0213934
0.0212877
0.0213216
0.021251
0.0208761
0.0200368
0.0207368
0.0207137
0.0207169
0.0205411
0.0200507
0.019085
0.0207198
0.0206368
0.0203704
0.0199191
0.0192516
0.0181286
0.0218842
0.0206871
0.0195571
0.0185773
0.0172241
0.0285178
0.0226765
0.0196759
0.0181154
0.0164091
0.0412046
0.0295736
0.0207558
0.018031
0.0157414
0.0494933
0.0349049
0.0215583
0.0178161
0.01507
0.0544486
0.0372006
0.021709
0.017284
0.0143096
0.0549338
0.0365927
0.0210576
0.0163891
0.0134248
0.0509735
0.033637
0.0196002
0.0151378
0.0124131
0.0451663
0.0293389
0.0176027
0.0136742
0.0113514
0.0280949
0.0191886
0.0142877
0.0118847
0.010293
0.0157738
0.013502
0.0118479
0.0106791
0.00974051
0.0162671
0.0135531
0.0122302
0.0113228
0.0106045
0.0443741
0.0419975
0.03642
0.0308502
0.0260367
0.0181355
0.0175574
0.0175978
0.0182384
0.0193712
0.0102481
0.0101162
0.0101299
0.0102814
0.0105964
0.0118236
0.0115864
0.0116015
0.0118473
0.0122539
0.00628902
0.00622906
0.00622939
0.00628536
0.00635584
0.00333145
0.00334733
0.00335084
0.00334141
0.00333292
0.00455658
0.00458682
0.00459487
0.00458188
0.00456226
0.00692692
0.00694988
0.00695466
0.00694168
0.0069142
0.00883437
0.00885836
0.00885906
0.00883668
0.00878847
0.0105244
0.0105586
0.0105572
0.01052
0.0104393
0.0118373
0.0119052
0.0119083
0.0118539
0.0117323
0.0106034
0.0106854
0.010693
0.0106378
0.0105089
0.0103054
0.0124896
0.0124059
0.0123706
0.0123552
0.0123131
0.0122198
0.0138189
0.0132357
0.0133192
0.0136331
0.0140347
0.0144153
0.0149541
0.0144677
0.0146582
0.0151322
0.0156761
0.0161576
0.0173981
0.0168478
0.0170615
0.0175604
0.0180035
0.0182994
0.0199622
0.0192378
0.0192778
0.0196566
0.0199364
0.019918
0.0220738
0.0213569
0.0213251
0.0215614
0.0215885
0.0211661
0.023601
0.0230224
0.0229362
0.0229918
0.0227283
0.0219
0.0246266
0.024207
0.0240818
0.0239562
0.0234063
0.0222217
0.0252376
0.0249818
0.0248143
0.024507
0.0236905
0.0222148
0.025562
0.0254465
0.0252209
0.0247314
0.0236743
0.0219722
0.0257289
0.0256942
0.0253872
0.0247139
0.0234434
0.0215739
0.0258224
0.0257976
0.0253828
0.0245249
0.0230689
0.0210851
0.0258983
0.0258075
0.0252588
0.0242185
0.0226067
0.0205567
0.0259653
0.0257551
0.0250504
0.0238349
0.0220998
0.0200253
0.0260567
0.0256789
0.0247935
0.0234098
0.0215826
0.0195163
0.0261916
0.0256079
0.0245223
0.0229732
0.0210816
0.0190425
0.0266562
0.0257683
0.0243475
0.022579
0.020627
0.0186109
0.027602
0.0264276
0.0244825
0.0222916
0.0202494
0.0182196
0.0317497
0.0295288
0.0254412
0.0222514
0.0200082
0.0178794
0.0414447
0.0307654
0.0228279
0.0200023
0.0175886
0.0808169
0.0424466
0.025085
0.0204066
0.0174346
0.0962122
0.04674
0.0265428
0.0204564
0.0172107
0.100196
0.048369
0.026907
0.0201191
0.0168259
0.0993626
0.047586
0.026383
0.0194665
0.0163021
0.0972537
0.0443682
0.0251135
0.0185131
0.0156543
0.0939904
0.0427888
0.0238608
0.0174793
0.0149492
0.0470345
0.0287034
0.0189276
0.0156723
0.0139709
0.0219729
0.0170103
0.0150161
0.013905
0.0130132
0.0222612
0.0181053
0.0154888
0.0140216
0.0130753
0.0443518
0.0440356
0.0404241
0.0353251
0.0300909
0.0179161
0.0172262
0.0172944
0.0180968
0.019512
0.0141166
0.0136132
0.0136803
0.0142845
0.0153855
0.0116202
0.0110672
0.0111466
0.0118015
0.0129313
0.00616497
0.00612003
0.00612102
0.00616431
0.00622115
0.00273219
0.00272735
0.00272632
0.00272868
0.00273398
0.00317755
0.0031824
0.00318339
0.00318112
0.0031806
0.00456773
0.00457139
0.0045703
0.0045646
0.00455472
0.00566659
0.00567465
0.00567152
0.00565745
0.00563066
0.00659014
0.0066146
0.0066129
0.00658676
0.00653383
0.00761272
0.00767709
0.00767997
0.00763386
0.00753961
0.00674629
0.00678815
0.00678868
0.00676077
0.00670414
0.0163014
0.0160769
0.0159907
0.0159999
0.0160353
0.016047
0.013088
0.0131413
0.0138889
0.0151344
0.0170074
0.019272
0.0099222
0.0109731
0.0131453
0.0160913
0.0196786
0.0238708
0.0101519
0.0118557
0.0148905
0.0183202
0.0219044
0.025876
0.00958717
0.0118176
0.0148669
0.0180315
0.021285
0.0248947
0.00996472
0.0131393
0.0161868
0.0190348
0.0219238
0.0251423
0.01176
0.0149206
0.0178462
0.020496
0.023108
0.0259896
0.0141324
0.0172645
0.0200222
0.0224188
0.0247138
0.0272284
0.017059
0.0200855
0.0226269
0.0247288
0.0266744
0.0287975
0.0205086
0.0233623
0.0256321
0.0273897
0.0289453
0.0306444
0.0245053
0.0271344
0.0290563
0.0304015
0.0315101
0.0327395
0.0291581
0.0314857
0.0329518
0.0337883
0.0343699
0.0350651
0.034658
0.0365466
0.0374032
0.0375974
0.0375421
0.0376158
0.0413283
0.0425237
0.0425426
0.0419059
0.0410621
0.0403966
0.0494932
0.0496749
0.0485327
0.0468092
0.0449731
0.0434118
0.0598245
0.0585072
0.0556554
0.0524517
0.0493288
0.0466544
0.0725714
0.0692167
0.0640377
0.0588813
0.0541252
0.0500684
0.0909146
0.0839578
0.0744698
0.0663287
0.059366
0.0535514
0.109354
0.0993407
0.0862702
0.0742765
0.0648457
0.0568921
0.156039
0.134358
0.102917
0.0831626
0.0702916
0.0597263
0.142479
0.129268
0.091287
0.0758171
0.0618174
0.144159
0.140178
0.0936585
0.0773569
0.0616277
0.141675
0.141194
0.092014
0.0754616
0.0593921
0.137213
0.135687
0.0870567
0.0708454
0.0554141
0.132499
0.120078
0.0767561
0.0630252
0.0496181
0.132786
0.095216
0.0625602
0.052252
0.0419622
0.0830622
0.0625032
0.0499416
0.0425973
0.0355775
0.0522916
0.0487572
0.0426613
0.0372828
0.0317176
0.0437396
0.0418003
0.0382808
0.0341393
0.0296615
0.0446107
0.0465684
0.04463
0.0406797
0.0357581
0.00557781
0.00557779
0.00557757
0.00557739
0.00557997
0.00237983
0.00237418
0.00237285
0.00237567
0.00238125
0.00247798
0.0024717
0.00247038
0.00247407
0.00248259
0.00315348
0.00314697
0.0031439
0.00314406
0.00314627
0.00361203
0.00360855
0.00360429
0.00359891
0.00359101
0.0038763
0.00388144
0.00387806
0.00386663
0.00384661
0.00408987
0.00411237
0.00411264
0.00409274
0.0040539
0.00591858
0.00593138
0.00593295
0.00592525
0.0059104
0.183742
0.256766
0.234401
0.22977
0.223365
0.217698
0.180635
0.00286005
0.00285988
0.00285979
0.0028598
0.00286014
0.0021175
0.00211333
0.00211248
0.00211486
0.00211947
0.00206066
0.00205418
0.00205304
0.00205718
0.00206611
0.0023551
0.00234797
0.00234556
0.00234763
0.00235349
0.00250806
0.00250298
0.00250008
0.00249903
0.00249926
0.00263367
0.0026318
0.00262919
0.00262551
0.00262036
0.0022623
0.00226303
0.00226222
0.00225965
0.00225528
0.00284612
0.00284625
0.00284615
0.00284581
0.00284539
0.308373
0.484762
0.150045
0.389335
0.374905
0.36554
0.363256
0.335031
0.00575365
0.0051624
0.00453871
0.00390944
0.00329623
0.0055193
0.00499984
0.00443708
0.00385987
0.00329104
0.0055861
0.00504355
0.00445957
0.00386058
0.00326926
0.00119733
0.000890998
0.000767303
0.000697951
0.000671473
0.00240582
0.00177385
0.00115211
0.000727576
0.000709971
0.00363434
0.00290981
0.00213345
0.00143624
0.000984512
0.00452626
0.00373835
0.00287136
0.00204352
0.00146184
0.00135625
0.00528112
0.00443261
0.00349527
0.00257606
0.00190188
0.00172141
0.00591988
0.00504839
0.00408227
0.00310062
0.00234379
0.00212776
0.0064362
0.00559955
0.00466481
0.00366009
0.00281621
0.00258261
0.00678595
0.00608174
0.00527882
0.00429678
0.00335323
0.00309468
0.00692744
0.00641594
0.00589503
0.00499822
0.00400635
0.00367022
0.00557304
0.00604184
0.00631041
0.00572427
0.0047642
0.00430395
0.00279508
0.0031156
0.00540199
0.00629115
0.00554675
0.00496153
0.00209518
0.00214499
0.00464402
0.00677195
0.00623748
0.00558082
0.00611053
0.00701063
0.00672759
0.00609227
0.00610303
0.00691011
0.00699561
0.00647867
0.0061452
0.0068342
0.00720069
0.00681152
0.00666266
0.00700322
0.00747114
0.00717236
0.00794024
0.00757193
0.0079002
0.00763061
0.0105413
0.00859927
0.00858162
0.00823622
0.0177098
0.0104924
0.00955725
0.00901031
0.0462007
0.0158135
0.0110096
0.00997677
0.57252
0.827761
0.188981
0.032326
0.0130379
0.0110783
0.159391
0.385219
0.175694
0.0411695
0.0147349
0.0121313
0.141984
0.343015
0.151574
0.0432311
0.0158172
0.0129843
0.142695
0.333992
0.137546
0.0420888
0.0163718
0.0135591
0.34315
0.111811
0.0379126
0.0165709
0.0138479
0.480664
0.127002
0.0361093
0.0165897
0.0138045
0.14757
0.0489421
0.0274178
0.0163594
0.0134659
0.035374
0.0238659
0.0188258
0.0144577
0.0122824
0.0171705
0.0158198
0.0138446
0.0120645
0.0105385
0.0162691
0.0155438
0.0137714
0.0119608
0.01049
0.00626816
0.00576906
0.005204
0.00460465
0.00399709
0.00323305
0.00312531
0.00298365
0.00281112
0.00261271
0.00592331
0.00552623
0.00504815
0.00451545
0.00395447
0.00134612
0.000920937
0.0007739
0.000753002
0.000750563
0.00289348
0.0024935
0.0021085
0.00177431
0.00148103
0.00355489
0.00317553
0.00278039
0.00241519
0.00214903
0.00394702
0.00358823
0.0032088
0.00284784
0.00259105
0.00414502
0.0038112
0.00346118
0.00312701
0.00289401
0.00286002
0.0042603
0.00393858
0.00360376
0.00329324
0.00308259
0.00307356
0.00438276
0.00405083
0.00371074
0.00340109
0.00321192
0.00322121
0.0046633
0.00427836
0.00388548
0.00352856
0.00332567
0.00334295
0.00538207
0.00482472
0.00426747
0.00375656
0.0034563
0.00346135
0.0052322
0.00528606
0.00474311
0.004072
0.00359823
0.00358216
0.00362086
0.00401243
0.00466465
0.0043308
0.00369464
0.00368767
0.00265973
0.00271986
0.00422231
0.00439557
0.00374546
0.00377579
0.00525528
0.00433131
0.00379027
0.00385086
0.00481051
0.00420905
0.00382347
0.00392162
0.00463141
0.00406648
0.00384581
0.00399311
0.0047931
0.00397502
0.00388106
0.00406413
0.00530619
0.00393972
0.00396242
0.00413642
0.00647227
0.00403422
0.004076
0.00421283
0.0110484
0.00441111
0.00422776
0.00429874
0.0478954
0.00655781
0.00445349
0.00440008
0.797942
1.09464
0.296144
0.0286948
0.00514389
0.00452016
0.179019
0.407875
0.267876
0.0360673
0.00582742
0.00462802
0.137493
0.322995
0.231307
0.0349182
0.00614909
0.00469265
0.137185
0.31213
0.21045
0.0317103
0.00615586
0.00472175
0.151877
0.334783
0.196184
0.0273792
0.00593599
0.00472101
0.511323
0.202147
0.0262094
0.00578586
0.00472182
0.22928
0.0723777
0.014632
0.00550528
0.00476517
0.0341493
0.0178053
0.00809482
0.00521336
0.00478984
0.00857856
0.00704866
0.00593667
0.00512023
0.00487912
0.0145624
0.0131759
0.010979
0.00934658
0.00827945
0.00750241
0.00704916
0.00649178
0.00586468
0.00519942
0.0030327
0.00292396
0.00279999
0.00265934
0.00250315
0.00689796
0.00660303
0.00618761
0.00567645
0.00509925
0.00204016
0.00138259
0.000933589
0.000874517
0.000899659
0.00355442
0.00303595
0.00257089
0.00222302
0.00196333
0.00419899
0.00375011
0.00330684
0.0029401
0.00273379
0.00453392
0.00414061
0.00375081
0.00342566
0.0032664
0.00467125
0.00433238
0.00400622
0.0037441
0.00363639
0.00476041
0.00444534
0.00415507
0.0039394
0.0038873
0.00399595
0.00496005
0.00461095
0.00429753
0.00408374
0.00406005
0.00418586
0.00555896
0.00504092
0.00457225
0.00426203
0.0042169
0.00436336
0.0065929
0.00584284
0.00505787
0.00451808
0.00438977
0.00455565
0.0054442
0.00565948
0.00522589
0.00468536
0.00455021
0.00475503
0.00425251
0.00459141
0.00489284
0.00468947
0.00470143
0.00490717
0.00315523
0.00318608
0.00418738
0.0045713
0.00476002
0.00494608
0.00551988
0.00445005
0.00472428
0.00491963
0.00488233
0.00441963
0.00467955
0.00486999
0.00465892
0.0043968
0.00464605
0.00482451
0.00480281
0.00442004
0.00463299
0.0047901
0.0052927
0.00448616
0.00465062
0.00476979
0.00634136
0.00461088
0.00470339
0.00476496
0.0121603
0.00502141
0.00479236
0.00477646
0.0665286
0.00865513
0.00498359
0.00480362
1.03848
1.24617
0.389693
0.0501629
0.00641961
0.00486362
0.216995
0.439006
0.335866
0.0636197
0.00792294
0.00491215
0.135371
0.308224
0.285866
0.0612445
0.00841369
0.00490005
0.132299
0.293372
0.260185
0.0547775
0.00811605
0.00484798
0.149239
0.328633
0.24808
0.045397
0.00727807
0.00474132
0.334518
0.513148
0.243705
0.0400884
0.00655801
0.00461657
0.273845
0.104032
0.0215226
0.00554907
0.00450694
0.0734147
0.0315989
0.0100076
0.00489311
0.0044413
0.0124995
0.0094715
0.00606757
0.00485879
0.00462962
0.0152195
0.0132893
0.0109592
0.00944034
0.00853538
0.00805814
0.00764046
0.00711424
0.00650749
0.00584963
0.00316748
0.00303545
0.00289412
0.00274162
0.00257781
0.00724526
0.0070377
0.00669633
0.00623998
0.00569651
0.00290524
0.0019763
0.00124974
0.00103556
0.00109699
0.00438932
0.00371756
0.00309212
0.00266529
0.00242334
0.00501249
0.00447241
0.00393344
0.00352622
0.00337338
0.00532968
0.00488125
0.00444791
0.0041262
0.00404425
0.00550338
0.00513206
0.00478111
0.00453803
0.00452305
0.00570019
0.00534803
0.00503119
0.00483418
0.00486168
0.00613824
0.00570685
0.00532562
0.00510229
0.00513442
0.00530964
0.00711916
0.0064241
0.0058027
0.00542955
0.005409
0.0055793
0.00771049
0.00718923
0.00636235
0.00579354
0.00571117
0.00588747
0.00569139
0.00610628
0.00612339
0.00589445
0.00600179
0.00622561
0.00489768
0.00518084
0.00538659
0.0056878
0.00628024
0.00650739
0.00356713
0.00357594
0.00444109
0.00543565
0.00642724
0.00657772
0.00625274
0.00535765
0.00632047
0.00644928
0.00549324
0.00539624
0.00614659
0.00623349
0.00522383
0.00541162
0.00597785
0.00602466
0.00532308
0.00544747
0.00584735
0.00584469
0.00575393
0.00549936
0.00574401
0.00570047
0.00681024
0.00561272
0.00568422
0.00559072
0.014502
0.00608218
0.00568051
0.00551182
0.0858426
0.0124
0.00588935
0.00545986
1.25894
1.31442
0.461336
0.0765853
0.00890331
0.00550206
0.272031
0.471978
0.384123
0.0950555
0.0118899
0.00555584
0.13664
0.298963
0.323004
0.0894429
0.0126283
0.00551515
0.128178
0.278086
0.294137
0.0790655
0.0118941
0.00539421
0.147248
0.323326
0.281566
0.0640904
0.0101054
0.00515823
0.320258
0.497994
0.266066
0.0535017
0.008485
0.00488172
0.303153
0.296377
0.128443
0.0293812
0.00649876
0.00461292
0.101903
0.0452459
0.0132952
0.00522886
0.00448511
0.0241296
0.0137593
0.00700269
0.00502223
0.00473381
0.0162464
0.0137585
0.0111454
0.00973995
0.00904342
0.0082483
0.00783915
0.00733735
0.00676131
0.00613345
0.00329729
0.00314561
0.00299008
0.00282851
0.00265878
0.00727653
0.00712788
0.00684749
0.00644613
0.00594873
0.00387385
0.00264535
0.00167517
0.00127898
0.00139491
0.00528338
0.00448533
0.00372435
0.0032207
0.00298274
0.00589338
0.00528928
0.00469406
0.00427228
0.00419656
0.00624711
0.00578462
0.00533161
0.00502517
0.005031
0.00655127
0.00615512
0.00578125
0.00555509
0.00560649
0.00693929
0.0065324
0.00616374
0.00595893
0.00601813
0.00765446
0.00711124
0.00662517
0.00635112
0.00637454
0.00876278
0.00801233
0.00727421
0.0068265
0.00676954
0.00681804
0.0082795
0.00832061
0.00778532
0.00729991
0.00723428
0.00725452
0.00597716
0.00653569
0.00710727
0.00737305
0.00771232
0.00775126
0.0055611
0.00583547
0.00599558
0.00700385
0.00813827
0.00814987
0.00378559
0.00383287
0.00491592
0.00668405
0.00829267
0.00823613
0.00730904
0.00662106
0.00805081
0.00801045
0.00646335
0.00663364
0.00769751
0.00763988
0.00611222
0.00659108
0.00735068
0.00724234
0.00611732
0.00655653
0.00706525
0.00688991
0.00643378
0.00653755
0.00684732
0.00660372
0.00744706
0.00659336
0.00668119
0.00637692
0.0170053
0.00727001
0.00658845
0.00619902
0.103655
0.0182139
0.00692356
0.0060647
1.43239
1.33436
0.504608
0.110658
0.012869
0.00612427
0.339694
0.504851
0.413706
0.13204
0.0184603
0.00622442
0.14209
0.295183
0.347284
0.119548
0.0194666
0.00614626
0.125008
0.26645
0.317006
0.103999
0.0177408
0.00589986
0.14592
0.31821
0.302979
0.0830252
0.0142459
0.00546773
0.307714
0.473978
0.276996
0.0662635
0.0110527
0.00501949
0.311457
0.304991
0.146428
0.0372362
0.00771135
0.00463599
0.136212
0.123146
0.0575878
0.0168494
0.00563875
0.00448788
0.0356617
0.0185159
0.00809803
0.0051769
0.00481121
0.0186283
0.0146164
0.011438
0.0101165
0.00967137
0.00831842
0.00788801
0.00739004
0.0068334
0.00623224
0.00341233
0.00323681
0.0030645
0.00289273
0.00271702
0.00720546
0.00709093
0.00685229
0.00649306
0.0060351
0.00491962
0.00338797
0.00218154
0.00163259
0.00181916
0.00620012
0.00532062
0.00446037
0.00391132
0.00366707
0.00684822
0.00622763
0.00561012
0.00520299
0.00520366
0.00736136
0.00688571
0.00641509
0.00613278
0.00619496
0.00784229
0.00740918
0.00699921
0.00677238
0.00683413
0.00843181
0.007946
0.00750122
0.00725577
0.00727823
0.00930686
0.00867934
0.00809211
0.007742
0.00768842
0.010027
0.0095486
0.00883782
0.00834473
0.00819503
0.00847124
0.00911277
0.00919801
0.00892709
0.00883767
0.00852627
0.00632934
0.0070178
0.00811254
0.00901178
0.00951724
0.00917155
0.00621003
0.00654186
0.00671102
0.00854283
0.0100522
0.00965497
0.0039082
0.00402015
0.00560127
0.0082038
0.0100955
0.0097148
0.00864012
0.00803879
0.00965371
0.00934558
0.00773192
0.00791574
0.0090847
0.00879755
0.00726108
0.00774331
0.00854729
0.00823671
0.00713571
0.00759197
0.00810233
0.00773769
0.00730343
0.0074695
0.00775073
0.00732116
0.00824636
0.00744787
0.00748036
0.00697871
0.0195012
0.00833246
0.00732768
0.00669907
0.119198
0.023815
0.00791359
0.00648515
1.54381
1.32552
0.524853
0.134537
0.01722
0.00659624
0.413618
0.537015
0.431753
0.161501
0.0255607
0.00679372
0.15199
0.29643
0.360868
0.148657
0.0269771
0.00670224
0.122962
0.25825
0.331307
0.128055
0.0242175
0.00633572
0.145228
0.312915
0.315857
0.101509
0.0189554
0.00573487
0.296442
0.446492
0.281394
0.0784798
0.0140422
0.00514364
0.311689
0.305193
0.159542
0.0451672
0.00922558
0.00466304
0.156303
0.138467
0.0685283
0.0207841
0.00618481
0.00448164
0.0556575
0.0465063
0.0235931
0.00942491
0.00533355
0.00484993
0.0219793
0.0158888
0.0118267
0.0105121
0.0103591
0.00838826
0.00791386
0.00739964
0.00684611
0.00625936
0.00353108
0.00332654
0.00313278
0.00294649
0.00276161
0.0071284
0.00703232
0.00682024
0.00649005
0.00605998
0.00604581
0.00422992
0.00278648
0.00212093
0.00237201
0.00714699
0.0062334
0.0053031
0.00473527
0.00444575
0.00795112
0.00732865
0.00668785
0.00630568
0.00633638
0.00869364
0.00818164
0.0076819
0.00740442
0.0074456
0.00935187
0.00885305
0.00838169
0.00811566
0.00809483
0.010066
0.00949771
0.00896245
0.00863681
0.00852006
0.0108622
0.010274
0.00963245
0.00918764
0.00894865
0.0107847
0.0108951
0.0104125
0.00990704
0.00954789
0.00853734
0.00968088
0.0105754
0.0106084
0.0103563
0.00676058
0.00758108
0.00914705
0.0107347
0.0112083
0.0103428
0.0068243
0.00728145
0.00755358
0.0102153
0.0117806
0.0108511
0.00398258
0.0041792
0.00649559
0.00983881
0.0116305
0.0108345
0.0102077
0.00944595
0.0109605
0.0103071
0.00926741
0.0091109
0.0101735
0.00958831
0.00865446
0.00876731
0.0094498
0.00886892
0.00838473
0.00847466
0.00884845
0.0082316
0.00840646
0.00823276
0.00836494
0.00769837
0.00932158
0.00812205
0.00798495
0.00726017
0.0221867
0.00920051
0.00776399
0.0069045
0.131409
0.0283309
0.00860518
0.00665335
1.59103
1.29311
0.525094
0.146608
0.0205977
0.00685789
0.487484
0.569728
0.441674
0.181992
0.0321182
0.00728232
0.166114
0.302122
0.368137
0.172058
0.0347999
0.00733129
0.122181
0.253163
0.338578
0.150113
0.0315584
0.00692637
0.145115
0.307345
0.322373
0.11901
0.0246099
0.00615882
0.286156
0.418851
0.281973
0.0902656
0.0177788
0.00538798
0.307366
0.300539
0.169059
0.0532537
0.011237
0.00476562
0.170492
0.149322
0.0782023
0.0251442
0.0069563
0.00449862
0.0695631
0.0564199
0.0288962
0.0110386
0.0055333
0.00486907
0.0304074
0.0261389
0.0176676
0.0124124
0.0109707
0.0111092
0.00850906
0.00797535
0.00742947
0.00686464
0.00627937
0.00366531
0.00342781
0.00320847
0.00300325
0.0028053
0.00708718
0.00700094
0.00680543
0.0064941
0.00608123
0.00724602
0.00519234
0.00353717
0.0027645
0.00304707
0.00819263
0.00723395
0.00624814
0.00566901
0.00526489
0.00923738
0.00857334
0.00790341
0.00754024
0.00747669
0.0101957
0.00962462
0.00907553
0.00877611
0.00864049
0.0109821
0.0104054
0.00985162
0.00951159
0.00924441
0.0116976
0.011088
0.0104667
0.0100277
0.00962195
0.0121312
0.0117901
0.0111743
0.0106165
0.010055
0.0112066
0.0119853
0.0119465
0.0114381
0.010732
0.008622
0.0101946
0.011916
0.0122558
0.0116702
0.0072677
0.00824404
0.0102337
0.0124353
0.0126159
0.00740379
0.0080516
0.00854342
0.011906
0.0131054
0.0116654
0.00403942
0.00433606
0.00762806
0.0113704
0.0127712
0.0115299
0.0119717
0.0107046
0.0118913
0.0108546
0.0110499
0.0101361
0.0109199
0.0100051
0.010293
0.00961274
0.0100447
0.00917976
0.00988083
0.0091754
0.0093194
0.00846058
0.00977755
0.00881502
0.00873494
0.00786504
0.0107316
0.00862206
0.00827747
0.00738106
0.0250782
0.00987443
0.00802207
0.00699233
0.139783
0.0313876
0.0091285
0.00674036
1.57993
1.24421
0.510408
0.149038
0.0229941
0.00704795
0.560017
0.600029
0.445412
0.194382
0.0378598
0.00778766
0.184237
0.311461
0.371542
0.189482
0.0425237
0.00810813
0.122788
0.250835
0.340946
0.168845
0.0394596
0.00775259
0.145523
0.301615
0.324327
0.134996
0.0311197
0.00682139
0.276703
0.392912
0.280387
0.101601
0.0223153
0.00581477
0.300625
0.29337
0.176
0.0614837
0.0138314
0.0049718
0.180334
0.156935
0.086793
0.0299427
0.0080163
0.00454475
0.0818963
0.0654333
0.0343945
0.0130005
0.0058115
0.00487744
0.0374653
0.0309448
0.0200026
0.0132521
0.0114951
0.0118899
0.00870329
0.00810001
0.00751145
0.00692429
0.0063298
0.00382071
0.00354748
0.00329938
0.0030716
0.00285706
0.00710146
0.00702102
0.00683626
0.00653695
0.00613302
0.00852312
0.00629757
0.00447332
0.00362969
0.00385148
0.00929515
0.00829658
0.00726775
0.00664554
0.0060838
0.0106344
0.00991193
0.00920449
0.00884111
0.00855769
0.0117835
0.0111408
0.0105247
0.0101727
0.00972054
0.0126317
0.0119843
0.0113367
0.0108835
0.0102457
0.013203
0.0126333
0.0119522
0.0113458
0.0105612
0.0131033
0.0131728
0.0126721
0.0119319
0.0109881
0.0114862
0.0128862