/*--------------------------------*- C++ -*----------------------------------*\
| =========                 |                                                 |
| \\      /  F ield         | OpenFOAM: The Open Source CFD Toolbox           |
|  \\    /   O peration     | Version:  2.3.1                                 |
|   \\  /    A nd           | Web:      www.OpenFOAM.org                      |
|    \\/     M anipulation  |                                                 |
\*---------------------------------------------------------------------------*/
FoamFile
{
    version     2.0;
    format      ascii;
    class       volScalarField;
    location    "600";
    object      nut;
}
// * * * * * * * * * * * * * * * * * * * * * * * * * * * * * * * * * * * * * //

dimensions      [0 2 -1 0 0 0 0];

internalField   nonuniform List<scalar> 
6852
(
0.00299609
0.00294128
0.00294395
0.00300268
0.00310967
0.00145298
0.00143423
0.00143569
0.00145641
0.00149424
0.00138459
0.0013703
0.00137192
0.00138846
0.00141798
0.00126774
0.00125877
0.00126049
0.00127213
0.00129442
0.00122274
0.0012126
0.00121462
0.0012281
0.00125366
0.0013828
0.00137498
0.00137634
0.00138655
0.00140742
0.00143751
0.00156777
0.00156076
0.0015614
0.00156954
0.00158603
0.00161049
0.00177691
0.00177079
0.00177084
0.001777
0.00178954
0.00180848
0.00200731
0.00200181
0.0020013
0.00200581
0.00201507
0.00202922
0.00225916
0.00225412
0.00225307
0.00225608
0.0022623
0.00227187
0.00253753
0.00253293
0.00253135
0.00253292
0.00253615
0.00254113
0.00285132
0.00284704
0.00284494
0.0028452
0.00284553
0.00284602
0.00319491
0.00319076
0.00318805
0.00318683
0.00318398
0.00317949
0.00354633
0.00354248
0.00353898
0.00353571
0.00352892
0.0035185
0.00385838
0.00385481
0.00384955
0.00384238
0.00383033
0.00381348
0.00408336
0.00408
0.00407276
0.00406122
0.0040433
0.00401932
0.00421223
0.00420877
0.00419931
0.00418315
0.00415922
0.00412801
0.00424928
0.00424516
0.00423311
0.00421247
0.00418254
0.00414443
0.00420902
0.00420351
0.00418839
0.0041633
0.00412766
0.00408301
0.00411165
0.00410387
0.00408507
0.00405519
0.00401422
0.00396362
0.00397873
0.00396775
0.0039445
0.00390928
0.00386264
0.00380622
0.00382991
0.00381478
0.00378617
0.00374481
0.00369183
0.00362908
0.00368096
0.00366077
0.00362576
0.00357723
0.00351689
0.00344688
0.003543
0.00351691
0.00347435
0.00341743
0.00334844
0.00326993
0.00342247
0.00338978
0.00333851
0.00327188
0.0031928
0.00310437
0.00332146
0.00328173
0.00322073
0.00314316
0.00305259
0.00295284
0.00319167
0.00312023
0.0030308
0.00292762
0.00281546
0.00311482
0.00303321
0.00293187
0.00281571
0.0026907
0.00304467
0.00295451
0.00284234
0.00271392
0.0025766
0.00297004
0.00287675
0.00275743
0.00261943
0.00247178
0.00288238
0.00279472
0.00267415
0.00253114
0.00237659
0.00277436
0.0027081
0.00259439
0.00245233
0.00229497
0.00264159
0.0026173
0.00252139
0.00238748
0.00223224
0.00255256
0.00255747
0.00247584
0.00234914
0.00219686
0.00256835
0.00256027
0.00247303
0.00234259
0.00218728
0.00254759
0.00253929
0.0024522
0.00232109
0.00216442
0.00244649
0.00245525
0.00238272
0.00226034
0.00210866
0.00227515
0.0023148
0.00226628
0.00215959
0.00201678
0.00207748
0.00215355
0.00212909
0.00203744
0.00191475
0.00189599
0.00200979
0.00202124
0.00196247
0.00186201
0.00380801
0.00417834
0.00431818
0.00427959
0.00411829
0.00137372
0.00135274
0.00135381
0.00137626
0.00141783
0.00163175
0.00164447
0.00164742
0.00163943
0.00163121
0.00190246
0.00191316
0.00191779
0.00191462
0.00190803
0.00198438
0.00200082
0.00200809
0.002004
0.0019936
0.00312886
0.00318181
0.00319524
0.00316721
0.003122
0.00460456
0.00465537
0.00467042
0.00464827
0.00460372
0.0056723
0.00571541
0.0057268
0.0057054
0.00566044
0.00559106
0.00627212
0.00630869
0.00631646
0.00629445
0.00624899
0.00617891
0.00650352
0.00653478
0.00653979
0.00651745
0.00647244
0.00640313
0.00639805
0.00642565
0.00642905
0.00640692
0.00636305
0.0062956
0.00591971
0.00594399
0.00594641
0.00592539
0.00588377
0.00581936
0.00513836
0.00515902
0.00516091
0.00514224
0.00510521
0.00504753
0.00433673
0.00435378
0.00435548
0.00434011
0.00430975
0.00426242
0.00364854
0.0036614
0.0036628
0.00365112
0.00362841
0.00359301
0.00302313
0.00303001
0.00302572
0.00301004
0.00299289
0.00297434
0.00252863
0.00253227
0.00252969
0.00252039
0.00251059
0.00250009
0.00227132
0.0022739
0.00227349
0.00226918
0.00226358
0.00225609
0.00215762
0.00216006
0.00216097
0.00215934
0.00215545
0.0021485
0.00211482
0.00211766
0.0021194
0.002119
0.00211545
0.00210786
0.00210344
0.00210687
0.00210915
0.0021092
0.00210526
0.00209655
0.0021043
0.00210829
0.00211085
0.00211084
0.00210629
0.0020963
0.00210924
0.00211362
0.0021162
0.00211578
0.00211044
0.00209943
0.00211567
0.00212022
0.00212255
0.00212146
0.00211519
0.0021032
0.00212344
0.00212794
0.00212978
0.0021278
0.00212048
0.00210754
0.00213309
0.00213737
0.0021385
0.00213546
0.00212703
0.0021131
0.0021453
0.00214915
0.00214925
0.00214497
0.00213538
0.00212049
0.00216175
0.00216444
0.00216265
0.00215664
0.00214573
0.0021299
0.00218562
0.00217958
0.00217058
0.00215792
0.00214111
0.00222074
0.00220369
0.0021881
0.00217204
0.00215383
0.00227792
0.00223788
0.00220957
0.00218746
0.00216718
0.00238076
0.00229116
0.00223817
0.00220452
0.00218055
0.00252266
0.00235761
0.00226743
0.00221877
0.00219089
0.00263287
0.00240746
0.00228317
0.00222377
0.00219517
0.00267638
0.00241919
0.00227438
0.00221349
0.00219078
0.00264914
0.00238613
0.00224091
0.00219324
0.00218915
0.00249984
0.00230361
0.00219295
0.00218365
0.00221856
0.00220211
0.00215652
0.0021463
0.0022101
0.00229599
0.00199524
0.00204156
0.00214182
0.0022611
0.00232132
0.00191687
0.00195631
0.0020531
0.00213748
0.00221223
0.0017695
0.00169507
0.0016715
0.00170807
0.00179372
0.00209624
0.00218816
0.00217383
0.00209165
0.00197164
0.00140183
0.00138127
0.00138215
0.0014039
0.00144348
0.00167841
0.00168809
0.00169007
0.00168377
0.0016768
0.001636
0.00163628
0.00163748
0.00163912
0.00163813
0.00137278
0.00138025
0.0013839
0.00138272
0.00137833
0.00269513
0.00275934
0.00277589
0.00274392
0.00269872
0.00512803
0.00519076
0.00521174
0.00519101
0.00515339
0.00723158
0.00727573
0.00728979
0.00727388
0.0072418
0.00857287
0.00860463
0.00861161
0.00859375
0.00855848
0.00850396
0.00927219
0.0092972
0.0092989
0.00927677
0.00923408
0.00916767
0.00922903
0.00925415
0.00925381
0.00922709
0.00917448
0.00909212
0.00812241
0.00815508
0.00815645
0.00812562
0.00806075
0.007958
0.00672464
0.00677803
0.00678789
0.0067574
0.00668715
0.00657731
0.00576447
0.00581787
0.00582755
0.0057971
0.00572606
0.00561665
0.00516424
0.00520819
0.00521577
0.00518896
0.00512574
0.00502807
0.00475398
0.0047854
0.00478872
0.00476463
0.00471254
0.0046331
0.00440688
0.0044236
0.00441905
0.00438441
0.00434146
0.00429203
0.00392609
0.00391263
0.00388956
0.00385211
0.00382313
0.00380516
0.0034726
0.00343807
0.00340517
0.00337158
0.00335578
0.00335957
0.00313385
0.0030861
0.00304857
0.00302036
0.00301435
0.00303067
0.00290373
0.00284759
0.00280798
0.00278454
0.00278528
0.00280787
0.00275216
0.00269046
0.00265015
0.00263072
0.00263604
0.00266159
0.00265132
0.00258608
0.00254626
0.00253058
0.00253919
0.00256564
0.00257983
0.00251328
0.00247553
0.00246394
0.0024753
0.00250132
0.00252142
0.00245668
0.00242333
0.00241683
0.00243096
0.00245576
0.00246356
0.0024049
0.00237922
0.00237943
0.00239682
0.00241999
0.00239713
0.00234992
0.00233591
0.00234483
0.00236632
0.00238776
0.00231838
0.00228823
0.0022896
0.00230893
0.00233535
0.00235515
0.00223236
0.00222269
0.00224081
0.00227066
0.00230228
0.0023204
0.00217029
0.00219834
0.00223397
0.00226883
0.00228426
0.00215486
0.00217486
0.00220523
0.0022387
0.00224915
0.00224659
0.00220051
0.00219828
0.00221883
0.00221909
0.00249575
0.00229616
0.0022184
0.00221207
0.00219627
0.00276133
0.00240032
0.00224386
0.00220843
0.00217763
0.00294452
0.0024706
0.00225701
0.00219995
0.00216049
0.00297936
0.00247649
0.00224663
0.00218543
0.00214847
0.00285995
0.00242426
0.00222584
0.00218113
0.002158
0.00262504
0.00234944
0.00222333
0.00221184
0.00220698
0.00238528
0.00229621
0.00227247
0.00229478
0.00230567
0.00227995
0.00240422
0.00242412
0.00245105
0.00246079
0.00174895
0.00187735
0.00204798
0.0021263
0.00219329
0.00231106
0.00230262
0.00219147
0.00203528
0.00187794
0.00149893
0.00147552
0.00147636
0.00150095
0.00154463
0.00164436
0.00165148
0.00165195
0.00164614
0.00164047
0.00155703
0.00154737
0.00154584
0.00155247
0.00155796
0.00107217
0.00107154
0.00107226
0.00107395
0.00107457
0.0020785
0.00214404
0.00215906
0.00212406
0.00208084
0.00515236
0.00522426
0.00524666
0.00522179
0.00518504
0.00798344
0.00801876
0.00802983
0.00801805
0.0079993
0.00949581
0.00951264
0.00951443
0.00950187
0.00948147
0.00993501
0.00994604
0.00994257
0.00992439
0.00989273
0.00903007
0.00904778
0.00904444
0.00901945
0.00897092
0.00889349
0.00611788
0.00615698
0.00616052
0.00612959
0.00606095
0.00595163
0.00393655
0.00401164
0.00403074
0.0040048
0.00393924
0.00384119
0.00328579
0.00333592
0.00334249
0.00331092
0.00323956
0.0031382
0.00314026
0.00316771
0.00316473
0.00313292
0.00306667
0.00297428
0.0032422
0.00325164
0.00324106
0.00321286
0.00315627
0.00307407
0.00348385
0.00348091
0.00346505
0.00344061
0.00339355
0.00331951
0.00377808
0.00376383
0.00373616
0.00370737
0.00366281
0.00359124
0.00404015
0.00400447
0.00396229
0.0039264
0.0038821
0.0038121
0.00423293
0.00417467
0.00411761
0.00407377
0.0040277
0.00395714
0.00435841
0.00427913
0.00420846
0.0041568
0.00410697
0.00403289
0.00442892
0.00433238
0.00425052
0.00419183
0.00413661
0.00405598
0.00445471
0.00434629
0.00425656
0.00419222
0.00413059
0.00404097
0.00443959
0.00432652
0.00423327
0.00416539
0.00409724
0.0039971
0.00438557
0.0042736
0.00418227
0.0041139
0.00404012
0.00392908
0.00429147
0.00418501
0.00410224
0.00403742
0.00396
0.00383885
0.00415109
0.00405788
0.00399142
0.00393483
0.00385668
0.00372731
0.00396045
0.00389101
0.00384948
0.0038058
0.00373053
0.00359564
0.00372708
0.00369228
0.00368156
0.00365306
0.00358406
0.00344652
0.00347649
0.00348437
0.00350201
0.00348395
0.00342301
0.00328475
0.00330922
0.003337
0.00331125
0.00325711
0.00311765
0.00340102
0.00326388
0.00316111
0.00310032
0.00295409
0.0036113
0.00340595
0.0030677
0.00297213
0.00280563
0.00377745
0.00348229
0.0029725
0.00284653
0.00266884
0.0038784
0.00344883
0.00287223
0.0027223
0.00254503
0.00384739
0.00332977
0.00276657
0.0026053
0.00243807
0.00367828
0.00316637
0.00266583
0.00250504
0.00235386
0.00348221
0.00301372
0.0025954
0.00243739
0.00230194
0.00311989
0.00266079
0.00249449
0.00238568
0.00228655
0.00259325
0.00254045
0.0024711
0.00241195
0.00235156
0.00187598
0.0020514
0.00209391
0.0021326
0.00216147
0.00236526
0.00230105
0.00214281
0.00197216
0.00181179
0.0015121
0.0014878
0.00148951
0.00151638
0.00156276
0.00138877
0.00139058
0.00139136
0.00139087
0.0013931
0.00155861
0.0015429
0.00154207
0.0015552
0.00157
0.000981538
0.000978685
0.000978588
0.000981044
0.000983154
0.00168774
0.00174796
0.00176074
0.00172709
0.00168948
0.0054189
0.00550353
0.00552747
0.00549502
0.00545521
0.00897418
0.00899545
0.00900209
0.00899626
0.0089944
0.0102016
0.0101984
0.0101943
0.0101903
0.0101914
0.00978446
0.00977887
0.0097712
0.00976113
0.00974875
0.00746067
0.00746996
0.00746522
0.00744586
0.00740929
0.00306155
0.00309269
0.0030963
0.00307593
0.00303033
0.00296
0.00174924
0.00177465
0.00178068
0.00177185
0.00175022
0.00171913
0.0018247
0.00178423
0.00178296
0.00178443
0.00177402
0.00175163
0.00202285
0.00197662
0.00196991
0.00197119
0.00196164
0.00193901
0.00239271
0.00233569
0.0023263
0.00233055
0.00230495
0.00225661
0.00282742
0.00274399
0.00270436
0.0026832
0.00263374
0.00254327
0.00323431
0.00313646
0.00307555
0.00302852
0.00294482
0.00279719
0.00357891
0.00347891
0.00339654
0.00331797
0.00319173
0.00298284
0.00383811
0.00373491
0.00363288
0.00352294
0.003354
0.00309111
0.00399932
0.00389663
0.00377749
0.00363889
0.00343231
0.00312814
0.00406374
0.00397153
0.00383891
0.00367611
0.00343961
0.00310817
0.00404696
0.00397252
0.00383068
0.00364913
0.00339146
0.00304618
0.00396849
0.00391313
0.00376645
0.00357215
0.00330242
0.00295557
0.00385034
0.00380607
0.00365854
0.00345783
0.00318512
0.00284761
0.00371957
0.00366295
0.00351786
0.00331722
0.00305035
0.0027314
0.00356603
0.00349505
0.00335536
0.00316071
0.0029075
0.00261413
0.00338619
0.00331151
0.00318091
0.00299739
0.00276428
0.0025009
0.00321427
0.0031384
0.00301086
0.00283806
0.00262785
0.00239533
0.00305579
0.00299176
0.00286261
0.00269149
0.0025036
0.00229929
0.00310086
0.00300916
0.00278152
0.00257569
0.0023994
0.00221553
0.00332934
0.00291899
0.00251273
0.00232271
0.00214521
0.00406654
0.0032391
0.0025691
0.00228727
0.00209677
0.00443929
0.0033394
0.00259998
0.00225126
0.00205947
0.00454543
0.00335289
0.00258891
0.00221308
0.00202829
0.00450563
0.00328846
0.00254909
0.00217617
0.00200594
0.00431318
0.00316634
0.00250389
0.00214786
0.00199824
0.00403129
0.00313197
0.00250428
0.00215404
0.00201958
0.00332944
0.00278142
0.00231587
0.00212111
0.00203957
0.00236903
0.00219723
0.00211857
0.00207443
0.00206152
0.00193107
0.0018654
0.00189776
0.00194522
0.00196549
0.00236467
0.00235622
0.00225753
0.00211036
0.00194774
0.00300584
0.0029474
0.00295323
0.00302096
0.00313686
0.00133407
0.00131007
0.0013133
0.00134199
0.00139274
0.00121038
0.00118123
0.00118546
0.00121979
0.00127684
0.000919675
0.000918637
0.000918604
0.000919505
0.000920076
0.00164667
0.00168702
0.00169382
0.00166908
0.00164349
0.00634611
0.00642473
0.00644563
0.00641413
0.00638222
0.0105796
0.010583
0.0105855
0.0105891
0.0106077
0.0111497
0.0111251
0.0111169
0.0111255
0.0111538
0.00949818
0.00947386
0.00946364
0.00946625
0.0094812
0.00564927
0.00565428
0.00565039
0.00563747
0.00561415
0.00133183
0.00134284
0.00134351
0.0013367
0.00132266
0.0014336
0.00142369
0.00141987
0.00142028
0.00142185
0.00142237
0.00128455
0.00128716
0.00132327
0.00138133
0.00146431
0.00155875
0.00111845
0.00117619
0.00128736
0.00142433
0.00157511
0.0017348
0.00113133
0.00122258
0.00137015
0.00151978
0.00166181
0.00180619
0.00109941
0.00122062
0.00136906
0.00150775
0.00163814
0.00177161
0.00112085
0.00128706
0.00142855
0.00154913
0.00166254
0.0017804
0.00121764
0.00137154
0.00149999
0.00160749
0.00170685
0.00181015
0.00133482
0.00147534
0.0015888
0.0016812
0.00176516
0.00185279
0.00146653
0.00159131
0.00168899
0.00176569
0.00183384
0.00190542
0.00160799
0.00171622
0.00179766
0.00185827
0.00191031
0.00196558
0.0017577
0.00184958
0.00191397
0.00195777
0.00199315
0.00203165
0.00191732
0.00199238
0.00203823
0.00206394
0.00208163
0.00210257
0.00209033
0.00214653
0.00217154
0.00217717
0.00217557
0.0021777
0.00228264
0.00231542
0.00231594
0.00229854
0.00227528
0.00225676
0.00249797
0.00250255
0.00247361
0.00242929
0.00238117
0.00233947
0.00274634
0.00271593
0.00264891
0.00257154
0.00249382
0.00242527
0.0030248
0.00295406
0.0028414
0.0027246
0.00261224
0.00251244
0.00338556
0.00325345
0.00306411
0.00289178
0.00273579
0.00259836
0.00371306
0.00353898
0.00329795
0.00306013
0.00285927
0.00267818
0.00443538
0.00411571
0.00360212
0.00323801
0.00297691
0.00274408
0.00459525
0.00403701
0.00339249
0.0030917
0.0027917
0.00476437
0.00420392
0.00343627
0.00312294
0.00278742
0.00478237
0.00421912
0.00340597
0.00308445
0.00273639
0.00472294
0.00413603
0.00331295
0.00298861
0.00264316
0.00463648
0.00389086
0.00311079
0.00281884
0.00250112
0.00454172
0.00346473
0.00280843
0.00256664
0.00230008
0.00323605
0.00280715
0.00250926
0.00231742
0.00211788
0.00256762
0.00247932
0.00231916
0.00216804
0.0019997
0.00234829
0.00229564
0.00219687
0.00207463
0.00193379
0.00474312
0.00484607
0.00474414
0.00452932
0.0042465
0.000838584
0.000838582
0.000838566
0.000838552
0.000838746
0.00239974
0.00242427
0.00242994
0.00241833
0.00240617
0.00886405
0.00890558
0.00892037
0.00891173
0.00890805
0.0129299
0.0129215
0.0129225
0.0129343
0.012964
0.0127976
0.0127666
0.01276
0.012778
0.0128223
0.0102178
0.0101824
0.0101726
0.0101876
0.0102263
0.00429728
0.00429329
0.0042898
0.00428576
0.00427999
0.00086382
0.000864753
0.000864868
0.000864306
0.000863223
0.00481303
0.0113792
0.00543617
0.0053822
0.00530666
0.00523891
0.0095443
0.000600484
0.000600466
0.000600457
0.000600457
0.000600493
0.00601949
0.00602202
0.00602287
0.00602232
0.00602252
0.0131936
0.0132026
0.0132075
0.013209
0.0132138
0.0152516
0.0152485
0.0152502
0.0152574
0.0152724
0.0148848
0.0148733
0.0148738
0.0148872
0.0149147
0.0129779
0.0129594
0.0129584
0.0129753
0.0130097
0.00615625
0.00614925
0.00614766
0.00615075
0.00615765
0.00059902
0.000599033
0.000599022
0.000598987
0.000598942
0.00623522
0.0156354
0.00536244
0.00700608
0.00687503
0.00678862
0.00676737
0.0129983
0.0017007
0.00161058
0.00151006
0.0014014
0.00128648
0.000832901
0.000792541
0.000746564
0.000696303
0.000642845
0.00167565
0.00159183
0.00149675
0.00139256
0.00128119
0.000777068
0.000670294
0.000621911
0.000593068
0.000581687
0.000550565
0.000472629
0.000380688
0.000302544
0.000298872
0.000676564
0.000605222
0.000517993
0.000424647
0.000351118
0.000754896
0.000685858
0.000600843
0.00050654
0.00042819
0.000413131
0.00081525
0.000746671
0.000662814
0.000568687
0.000488435
0.000465283
0.000862964
0.000796675
0.000716194
0.000623876
0.000542202
0.00051731
0.000899623
0.00083886
0.000765479
0.000677798
0.000594384
0.000569914
0.000923559
0.000874061
0.000814205
0.000734366
0.000648652
0.000623833
0.000932978
0.000897571
0.000860329
0.000791889
0.000709265
0.000679341
0.00083667
0.000870982
0.000890182
0.000847466
0.000773575
0.000735634
0.000593376
0.00062603
0.000823984
0.000888858
0.000834793
0.000789817
0.000513946
0.000520001
0.000764801
0.000922369
0.000885333
0.000837659
0.00175333
0.000938652
0.000919569
0.000875253
0.00175281
0.000932201
0.000937912
0.000902724
0.00175978
0.00092743
0.000951846
0.000925842
0.00183314
0.000939192
0.000969821
0.000950317
0.00200166
0.000976892
0.000997596
0.000980487
0.00230654
0.00104124
0.00104001
0.00101892
0.00298953
0.00115032
0.00109777
0.00106596
0.00482777
0.00141223
0.00117841
0.00112187
0.00997168
0.0186513
0.00488141
0.00201898
0.00128247
0.00118233
0.00536848
0.00783399
0.00470689
0.00227859
0.00136347
0.00123736
0.00563728
0.00693169
0.00437195
0.0023351
0.00141274
0.00128019
0.00578724
0.0068186
0.00416464
0.00230414
0.00143734
0.00130824
0.00708576
0.00375493
0.00218692
0.00144605
0.00132205
0.0150685
0.00400179
0.00213421
0.00144679
0.00131987
0.0043134
0.0024844
0.00185972
0.00143655
0.00130338
0.00211196
0.00173486
0.00154088
0.00135026
0.00124453
0.00147131
0.00141224
0.00132109
0.0012332
0.00115257
0.00286414
0.0027995
0.00263496
0.00245553
0.00229959
0.000887672
0.000851383
0.000808573
0.000760586
0.000708533
0.000813476
0.000801988
0.000789786
0.00077527
0.000757456
0.000862777
0.000833141
0.000796273
0.000753123
0.000704718
0.000411998
0.000340637
0.000312225
0.000307955
0.000307469
0.00111021
0.00104989
0.000990368
0.000965527
0.000988213
0.00142437
0.0013571
0.00129153
0.00125307
0.00129121
0.00159652
0.00152357
0.00145812
0.00142231
0.00147022
0.00163985
0.00156494
0.00151332
0.001499
0.00156861
0.0017754
0.00155376
0.00149007
0.00146066
0.00148694
0.00159135
0.00182964
0.00143003
0.00137309
0.00135526
0.00140516
0.00156467
0.00183705
0.00134806
0.00128019
0.00124951
0.00129464
0.00150366
0.00181706
0.00130277
0.00121634
0.00115758
0.00117512
0.00140018
0.00179139
0.00110524
0.00110051
0.00104979
0.00105145
0.0012833
0.00179562
0.00125543
0.00120299
0.00101156
0.000985462
0.00125529
0.00179527
0.00310897
0.00242609
0.000937655
0.000955673
0.00125628
0.0017901
0.0008128
0.000948662
0.00127252
0.0017829
0.000778062
0.000973815
0.00131469
0.0017783
0.000763879
0.00101837
0.00138056
0.00177522
0.000777453
0.00108212
0.00145401
0.00176831
0.000818231
0.00116576
0.00150984
0.00175294
0.000903864
0.00123442
0.00154625
0.0017276
0.00118081
0.00121552
0.00155822
0.00169323
0.0024576
0.000844615
0.00146751
0.00164578
0.0136488
0.0217803
0.00825761
0.0014537
0.00100881
0.00156684
0.00566472
0.00910921
0.00756542
0.00187055
0.000919971
0.00148758
0.0056305
0.00714855
0.00669634
0.00190804
0.000931778
0.00142138
0.0057726
0.00695363
0.00621806
0.00180584
0.000956949
0.00136837
0.00574211
0.00757577
0.00614157
0.00164312
0.000984959
0.00132265
0.0152573
0.00697771
0.00164675
0.001011
0.00127993
0.00762635
0.00338903
0.00119116
0.00108876
0.00123783
0.00207587
0.00128835
0.000970874
0.00113875
0.00118145
0.00109097
0.000998853
0.00105031
0.00113191
0.00111663
0.00135484
0.00128868
0.0011763
0.00108528
0.00102147
0.000971231
0.000941204
0.000903199
0.000858496
0.000808263
0.000799701
0.000782094
0.000767529
0.000754095
0.000740247
0.000931108
0.000910758
0.000881649
0.000844517
0.000800385
0.000507161
0.000417408
0.000342963
0.000331967
0.000336766
0.00126816
0.00120809
0.00116241
0.00116751
0.00124784
0.00178607
0.00169784
0.00162183
0.0015975
0.0016932
0.00218764
0.00207216
0.001974
0.00193293
0.00202451
0.00245438
0.00232596
0.00222068
0.00218109
0.00227454
0.00257327
0.00243158
0.00233109
0.00231188
0.00243818
0.00270579
0.00253379
0.00238539
0.00229952
0.00231673
0.00249878
0.00281048
0.00238213
0.00222166
0.00214156
0.0021947
0.00245796
0.00286807
0.00204813
0.00192586
0.00185776
0.00194204
0.00231206
0.00289079
0.00145368
0.00147841
0.00148816
0.00161988
0.00212005
0.00293202
0.00195069
0.00175372
0.0013578
0.00142254
0.00206286
0.00302689
0.0042374
0.00316277
0.00117949
0.00133339
0.00218245
0.00309108
0.000833237
0.00135156
0.00230767
0.00312937
0.000784321
0.0014677
0.00244282
0.00314217
0.000766616
0.00162197
0.00257948
0.00313361
0.000778664
0.00178651
0.00269962
0.00310695
0.000817575
0.00193147
0.00277773
0.00306635
0.000894949
0.00199514
0.00281632
0.00301636
0.00123878
0.00168138
0.00274461
0.00295246
0.00289621
0.000905484
0.00214723
0.00282908
0.0177652
0.0239591
0.010697
0.00238614
0.00101381
0.00250073
0.00636424
0.010529
0.00979194
0.00315207
0.00098115
0.002244
0.00566321
0.00746119
0.00853378
0.00318019
0.00102618
0.00211239
0.00577865
0.00712035
0.00787264
0.00294844
0.00104527
0.00206207
0.00584758
0.0080953
0.00789383
0.00257544
0.0010493
0.00204782
0.00811848
0.0151465
0.00865494
0.00242386
0.0010677
0.00201998
0.00944207
0.00480015
0.00162274
0.00119166
0.0019693
0.003663
0.00201673
0.00107054
0.00140844
0.00180867
0.00122439
0.00101046
0.00107051
0.00140396
0.00147107
0.00138507
0.00129426
0.00117527
0.00109075
0.00103717
0.00100665
0.000979997
0.000945634
0.000904452
0.000857454
0.000803003
0.000780945
0.000762446
0.000745887
0.000730059
0.000954348
0.00094037
0.000917304
0.000885576
0.000846096
0.000605136
0.000499035
0.000396819
0.000361308
0.000371908
0.00141167
0.00133269
0.0012708
0.00129115
0.00143401
0.00206397
0.00194396
0.00184819
0.00184124
0.0020113
0.00261837
0.00246148
0.00234098
0.00231549
0.00247215
0.00305227
0.00288288
0.00274556
0.00270501
0.00284585
0.0033554
0.00317273
0.0030268
0.00298348
0.00312044
0.00346987
0.00327282
0.00313294
0.0031136
0.00328318
0.00357141
0.00329629
0.00309708
0.00298963
0.00303901
0.00330812
0.00368838
0.00258921
0.0025637
0.00255717
0.00272342
0.00317869
0.00374891
0.00185
0.00187119
0.00198842
0.00229101
0.00298452
0.00380913
0.00260482
0.00228036
0.00176401
0.00200265
0.00293133
0.00390898
0.00425915
0.00326813
0.00146035
0.00186706
0.00309106
0.00395857
0.000887255
0.00190402
0.00321673
0.00394267
0.000832475
0.00207594
0.00332042
0.00388087
0.000812179
0.00225932
0.00339783
0.00379355
0.000820048
0.00240777
0.00344321
0.00369084
0.000852638
0.00249166
0.00344455
0.0035822
0.000927487
0.00245526
0.00339714
0.0034727
0.00135255
0.00183982
0.00316914
0.00334907
0.00328955
0.00108507
0.00218019
0.00312679
0.0219287
0.0255046
0.0126923
0.00351538
0.0010742
0.00257834
0.00758336
0.0119938
0.0115784
0.00458132
0.00120321
0.00222397
0.00575922
0.00788968
0.0100182
0.00455877
0.00129834
0.00208016
0.0058081
0.00733664
0.00921863
0.00418381
0.00129748
0.002044
0.00599011
0.00861371
0.00924302
0.00359127
0.00122979
0.00205168
0.00850908
0.0148788
0.00972649
0.00322467
0.00117575
0.00205663
0.00989731
0.0105348
0.00597859
0.00216219
0.00119176
0.00207039
0.00498017
0.0028177
0.00131926
0.00138601
0.00202432
0.00183191
0.00128552
0.00110687
0.00147196
0.00161497
0.0014311
0.00131699
0.00118528
0.00110799
0.00106766
0.00101856
0.000992774
0.000960471
0.000922044
0.000878136
0.000819198
0.00079395
0.000772271
0.000752583
0.000733925
0.000956507
0.000946502
0.000927735
0.000900216
0.000864757
0.000698717
0.000577367
0.000459474
0.000401533
0.000419321
0.00157928
0.00148548
0.0014129
0.00145121
0.0016485
0.00238735
0.00223403
0.00212536
0.00214169
0.00238662
0.00310054
0.00291084
0.00276772
0.00275415
0.00296601
0.00367743
0.00347168
0.00330275
0.00325987
0.00342581
0.00407113
0.00386431
0.00368841
0.00363281
0.00376947
0.00421546
0.00401347
0.00385917
0.00383335
0.00399245
0.00394062
0.00378994
0.00371044
0.00379059
0.00406931
0.00435821
0.00293475
0.00304833
0.00318462
0.00346313
0.00398485
0.00446325
0.00228419
0.00227834
0.00249608
0.0029973
0.00383621
0.00454657
0.0031267
0.0027321
0.0021908
0.00266147
0.00381675
0.0046151
0.00405733
0.0031679
0.00173176
0.00250994
0.00393733
0.00461159
0.000959778
0.00249179
0.00398226
0.0045172
0.000903397
0.0026339
0.00398764
0.00436215
0.000878752
0.0027677
0.00396024
0.00417689
0.000879181
0.00284894
0.0039047
0.00398701
0.00090159
0.00286157
0.00382309
0.00380675
0.000969779
0.00273079
0.00369345
0.00363808
0.00146441
0.00188952
0.00332697
0.00345767
0.00361454
0.00139002
0.00207909
0.00314739
0.0258114
0.0267957
0.0142254
0.00484771
0.00124948
0.00242349
0.00930605
0.0135022
0.0129759
0.0061206
0.0016053
0.00201765
0.00596209
0.00844815
0.0112342
0.00598608
0.00176863
0.00187052
0.005866
0.00761781
0.0103363
0.00545884
0.00172255
0.00183032
0.00616727
0.00911431
0.010318
0.00464525
0.00153566
0.00184387
0.00888706
0.0145535
0.0104739
0.00402098
0.00135856
0.00187675
0.0106886
0.0112164
0.00694323
0.00272198
0.00123078
0.00194404
0.0067265
0.0060635
0.00358421
0.00160999
0.00132175
0.00199229
0.00254565
0.00163932
0.00117506
0.00144524
0.00161071
0.00153248
0.00135749
0.00120081
0.00112928
0.00110418
0.00102297
0.000995971
0.000964024
0.000927055
0.000885292
0.000837964
0.000810022
0.000785664
0.000763321
0.000742237
0.000951921
0.000944166
0.000928186
0.000903608
0.000871131
0.00078747
0.000653503
0.000524475
0.000453622
0.000478783
0.00176795
0.0016667
0.00159481
0.00166587
0.00190399
0.00277498
0.00259657
0.00247954
0.00252425
0.00282291
0.00368177
0.00345481
0.0032817
0.00327215
0.00350087
0.00434741
0.0041163
0.00391704
0.00386166
0.00401233
0.00474319
0.00453566
0.00434689
0.00428073
0.00438685
0.004816
0.00465309
0.00452139
0.00450788
0.00463943
0.0043376
0.00433841
0.00434641
0.00448413
0.00475636
0.00320607
0.00342158
0.00375969
0.00417493
0.00472867
0.00502344
0.00272853
0.00269919
0.00300286
0.00372011
0.00464491
0.00511293
0.0034977
0.00308255
0.00262368
0.00336714
0.00464638
0.00514509
0.00383552
0.00299516
0.00197482
0.00321581
0.00467181
0.00507729
0.00104392
0.00304362
0.0045935
0.00489268
0.000988261
0.00308667
0.00447608
0.00464443
0.000957811
0.003136
0.00433789
0.00437551
0.000949472
0.00314341
0.00418712
0.00411384
0.000960466
0.00309446
0.00402677
0.00387449
0.00102033
0.00289313
0.00382903
0.00365735
0.00156802
0.0019175
0.00336103
0.00343119
0.00387595
0.00170708
0.00200262
0.00305578
0.0291913
0.0279901
0.0154311
0.00599162
0.00154007
0.00224407
0.0114417
0.0150766
0.0141586
0.00751382
0.00209605
0.00183381
0.00632424
0.00914146
0.0122223
0.0073513
0.00229482
0.0016931
0.00595971
0.00797126
0.011268
0.00670287
0.00219873
0.00165258
0.00637643
0.00958801
0.0111899
0.00569762
0.00189928
0.00166162
0.00924459
0.0142349
0.011042
0.00481384
0.00159805
0.00170412
0.0112483
0.0116588
0.00774941
0.00330673
0.00132888
0.00179928
0.00777211
0.00695579
0.00431003
0.00194761
0.00128853
0.00189996
0.00404732
0.00326864
0.00204532
0.00128174
0.00139368
0.00155013
0.00166467
0.0014154
0.0012211
0.00115123
0.00114285
0.00102734
0.000997697
0.000964748
0.000928013
0.000887317
0.000857539
0.000826953
0.00079998
0.000775115
0.000751721
0.000946906
0.000940366
0.000926129
0.000903509
0.000873034
0.000873078
0.000730335
0.000592874
0.000517023
0.000546697
0.00198028
0.00187797
0.00181348
0.00192649
0.00217941
0.00324368
0.00303749
0.00290303
0.00296863
0.00328007
0.00432247
0.00405952
0.00385288
0.00383097
0.00402725
0.00501061
0.00477137
0.004549
0.00446899
0.00455838
0.00534731
0.00516557
0.00498244
0.00490233
0.0049368
0.00529162
0.00521341
0.00513441
0.0051372
0.00520105
0.00459703
0.00478311
0.00492903
0.00513254
0.00535231
0.00345896
0.00374599
0.00430397
0.00485943
0.00538327
0.00314839
0.00310749
0.00351028
0.00443654
0.0053532
0.00547784
0.00373972
0.00333497
0.00305706
0.00408107
0.00534145
0.00548034
0.00362716
0.00279468
0.00219717
0.00391403
0.00524729
0.00534979
0.00113488
0.00350765
0.00503324
0.00508437
0.00108192
0.00341628
0.00479492
0.00475959
0.00104557
0.00337341
0.00455814
0.00442797
0.00102906
0.00331329
0.00433108
0.0041201
0.00103028
0.00321439
0.00411407
0.00384925
0.00108465
0.00296301
0.00387181
0.00361179
0.00167239
0.00193097
0.00334392
0.00337046
0.00406962
0.00198268
0.00196595
0.00297158
0.0319411
0.0290313
0.0163341
0.00685069
0.00182386
0.00213754
0.0138717
0.0167432
0.0152015
0.00868314
0.00259354
0.00173445
0.00688694
0.00997064
0.013083
0.00857691
0.0028737
0.00160352
0.00609918
0.00840041
0.012042
0.00787095
0.00275343
0.00155403
0.00661503
0.0100331
0.0119044
0.00672713
0.00235404
0.00154311
0.00957862
0.0139612
0.011508
0.00561085
0.00192174
0.00157505
0.0116615
0.0119635
0.00844307
0.00392416
0.00150133
0.00167697
0.00863507
0.00770567
0.00500159
0.00233722
0.00130743
0.00180293
0.00494373
0.00397828
0.00249462
0.00143462
0.00134747
0.00147164
0.00195786
0.00181542
0.00149259
0.00125103
0.00117614
0.00118358
0.00103478
0.00100165
0.000966779
0.000929355
0.000888826
0.000877724
0.000844505
0.000814909
0.000787529
0.00076178
0.000944246
0.000938369
0.000925232
0.000903894
0.000874665
0.000955915
0.000809301
0.000668082
0.000590293
0.000619661
0.00223194