/*--------------------------------*- C++ -*----------------------------------*\
| =========                 |                                                 |
| \\      /  F ield         | OpenFOAM: The Open Source CFD Toolbox           |
|  \\    /   O peration     | Version:  2.3.1                                 |
|   \\  /    A nd           | Web:      www.OpenFOAM.org                      |
|    \\/     M anipulation  |                                                 |
\*---------------------------------------------------------------------------*/
FoamFile
{
    version     2.0;
    format      ascii;
    class       volScalarField;
    location    "600";
    object      p;
}
// * * * * * * * * * * * * * * * * * * * * * * * * * * * * * * * * * * * * * //

dimensions      [0 2 -2 0 0 0 0];

internalField   nonuniform List<scalar> 
6852
(
77.9844
77.9863
77.9863
77.9844
77.979
77.9711
77.9731
77.9731
77.971
77.9655
77.9853
77.9878
77.9877
77.9852
77.9794
78.0273
78.0291
78.029
78.0272
78.0223
78.0316
78.0335
78.0335
78.0315
78.0265
78.0409
78.0425
78.0425
78.0409
78.0364
78.0295
78.034
78.0359
78.036
78.0342
78.0297
78.0228
78.0089
78.0108
78.011
78.0094
78.0052
77.9989
77.9679
77.9697
77.97
77.9688
77.9651
77.9596
77.9112
77.9129
77.9133
77.9125
77.9096
77.9051
77.8433
77.8449
77.8454
77.8451
77.8431
77.84
77.7624
77.7639
77.7646
77.7648
77.7637
77.7619
77.689
77.6906
77.6916
77.6923
77.6923
77.6919
77.6309
77.6324
77.6337
77.635
77.636
77.6371
77.588
77.5895
77.5911
77.593
77.595
77.5974
77.5574
77.559
77.561
77.5635
77.5664
77.5697
77.5358
77.5376
77.54
77.543
77.5466
77.5507
77.5195
77.5215
77.5243
77.5279
77.5321
77.5369
77.506
77.5084
77.5117
77.5158
77.5206
77.5261
77.4941
77.4969
77.5007
77.5055
77.511
77.5171
77.4827
77.486
77.4905
77.496
77.5023
77.5093
77.4714
77.4753
77.4805
77.4869
77.4942
77.5021
77.4599
77.4644
77.4705
77.4779
77.4863
77.4953
77.4478
77.453
77.4602
77.4688
77.4785
77.4889
77.435
77.4411
77.4495
77.4595
77.4708
77.4827
77.4216
77.4286
77.4384
77.4501
77.4632
77.4768
77.4157
77.4271
77.4407
77.4558
77.4714
77.4025
77.4158
77.4314
77.4489
77.4665
77.3903
77.4054
77.4229
77.4429
77.4627
77.3787
77.396
77.4155
77.4381
77.4599
77.373
77.3911
77.411
77.4357
77.4591
77.3687
77.3887
77.4089
77.4355
77.46
77.3789
77.3952
77.4128
77.4391
77.4635
77.3939
77.4068
77.4218
77.4465
77.4699
77.402
77.4148
77.4297
77.4537
77.4766
77.4116
77.4247
77.4396
77.4626
77.4847
77.4328
77.4426
77.4557
77.4762
77.4965
77.4682
77.4713
77.4797
77.4948
77.5119
77.4948
77.4948
77.501
77.513
77.5277
77.5148
77.5137
77.5183
77.5285
77.542
77.5198
77.5195
77.5249
77.5354
77.549
76.9517
76.9534
76.9534
76.9517
76.9464
76.9324
76.9342
76.9342
76.9324
76.9269
76.9392
76.9415
76.9415
76.9392
76.9333
76.9763
76.9784
76.9784
76.9762
76.971
76.9823
76.9846
76.9845
76.9822
76.9768
76.9902
76.9923
76.9923
76.9902
76.9852
76.9796
76.9816
76.9817
76.9798
76.975
76.9678
76.9544
76.9563
76.9565
76.9549
76.9506
76.9441
76.9137
76.9156
76.9159
76.9147
76.911
76.9054
76.8576
76.8594
76.8598
76.859
76.856
76.8515
76.7915
76.7932
76.7938
76.7935
76.7915
76.7885
76.709
76.7105
76.7113
76.7115
76.7105
76.7088
76.6399
76.6416
76.6427
76.6435
76.6436
76.6434
76.588
76.5895
76.5908
76.5923
76.5935
76.5948
76.5528
76.5542
76.5558
76.558
76.5602
76.5627
76.5294
76.5309
76.5329
76.5356
76.5386
76.542
76.513
76.5147
76.517
76.5201
76.5238
76.528
76.5001
76.5021
76.5048
76.5083
76.5126
76.5174
76.4889
76.4912
76.4944
76.4984
76.5033
76.5087
76.4784
76.4811
76.4848
76.4895
76.495
76.5012
76.4679
76.4711
76.4755
76.481
76.4872
76.4941
76.4571
76.4609
76.466
76.4724
76.4796
76.4875
76.4457
76.4501
76.4562
76.4636
76.472
76.481
76.4334
76.4387
76.4458
76.4545
76.4643
76.4746
76.4202
76.4263
76.4349
76.4451
76.4565
76.4684
76.4059
76.4131
76.4232
76.4352
76.4486
76.4624
76.3908
76.399
76.411
76.4251
76.4408
76.4568
76.3838
76.3983
76.4148
76.4333
76.4516
76.3692
76.3863
76.4051
76.4266
76.4473
76.3527
76.3741
76.3955
76.4208
76.4441
76.344
76.3676
76.3894
76.4176
76.4428
76.3276
76.3603
76.3838
76.4162
76.4431
76.3397
76.3682
76.3873
76.4199
76.4467
76.3549
76.3795
76.3957
76.427
76.4529
76.3617
76.3869
76.4038
76.4346
76.4601
76.3751
76.4005
76.4173
76.4459
76.4702
76.3982
76.4197
76.4363
76.4615
76.4841
76.4447
76.4518
76.4627
76.4811
76.4995
76.4743
76.475
76.4822
76.4969
76.5132
76.5002
76.4977
76.5017
76.5125
76.527
76.5066
76.5051
76.5104
76.5215
76.5359
75.901
75.9026
75.9026
75.901
75.8956
75.8807
75.8824
75.8825
75.8807
75.8752
75.8835
75.8858
75.8858
75.8835
75.8776
75.921
75.9233
75.9233
75.9211
75.9158
75.9283
75.9305
75.9305
75.9282
75.9229
75.9377
75.9398
75.9398
75.9377
75.9328
75.924
75.9262
75.9263
75.9243
75.9195
75.8985
75.9006
75.9008
75.8991
75.8948
75.8882
75.8571
75.8591
75.8595
75.8582
75.8544
75.8488
75.799
75.8008
75.8013
75.8004
75.7975
75.793
75.7333
75.735
75.7357
75.7354
75.7335
75.7307
75.6396
75.6411
75.6419
75.6421
75.6413
75.64
75.5746
75.5766
75.5779
75.5788
75.579
75.5794
75.5307
75.5323
75.5337
75.5353
75.5369
75.539
75.506
75.5073
75.509
75.5113
75.5141
75.5177
75.4922
75.4935
75.4956
75.4985
75.5022
75.5066
75.4843
75.4858
75.4882
75.4916
75.4958
75.5007
75.4788
75.4805
75.4832
75.4869
75.4915
75.4967
75.473
75.4749
75.478
75.4822
75.4872
75.4928
75.466
75.4684
75.472
75.4768
75.4823
75.4885
75.4576
75.4605
75.4648
75.4703
75.4766
75.4834
75.4475
75.4511
75.4562
75.4626
75.4698
75.4776
75.4355
75.44
75.4461
75.4537
75.4621
75.471
75.4215
75.4269
75.4344
75.4435
75.4535
75.4639
75.4052
75.4119
75.4211
75.4321
75.4441
75.4563
75.3862
75.3943
75.4059
75.4194
75.4339
75.4485
75.364
75.3739
75.3889
75.4054
75.4233
75.4407
75.3368
75.349
75.369
75.3898
75.4121
75.433
75.3208
75.3479
75.3733
75.4012
75.4259
75.278
75.3209
75.3539
75.3901
75.4195
75.243
75.3009
75.3381
75.3823
75.4155
75.1471
75.2654
75.3156
75.3747
75.413
75.1554
75.2736
75.3164
75.3782
75.4164
75.18
75.2899
75.3275
75.3875
75.4241
75.1975
75.3043
75.3418
75.399
75.4342
75.2321
75.329
75.3643
75.4151
75.4475
75.2774
75.3573
75.3905
75.4337
75.463
75.3893
75.4139
75.4315
75.4591
75.4824
75.4341
75.4455
75.4588
75.48
75.5003
75.4779
75.4781
75.4857
75.5004
75.517
75.4887
75.4892
75.498
75.5125
75.5291
74.8567
74.858
74.8579
74.8563
74.8513
74.8364
74.8377
74.8376
74.836
74.831
74.8289
74.8312
74.8311
74.8286
74.8227
74.8664
74.8687
74.8687
74.8663
74.8609
74.8745
74.8769
74.8768
74.8744
74.869
74.8859
74.8881
74.8881
74.886
74.8809
74.8691
74.8714
74.8716
74.8695
74.8645
74.8433
74.8455
74.8458
74.844
74.8396
74.8013
74.8035
74.8039
74.8025
74.7987
74.7412
74.7431
74.7436
74.7426
74.7396
74.7352
74.6758
74.6777
74.6784
74.6781
74.6762
74.6735
74.5612
74.5623
74.5629
74.5631
74.5626
74.5618
74.5007
74.5027
74.5039
74.5047
74.5052
74.5062
74.471
74.4716
74.4728
74.4745
74.4765
74.4795
74.4615
74.4623
74.4638
74.4662
74.4691
74.473
74.4587
74.4595
74.4614
74.4641
74.4675
74.472
74.459
74.4599
74.462
74.4651
74.4692
74.4742
74.459
74.4602
74.4626
74.466
74.4705
74.4759
74.457
74.4586
74.4614
74.4653
74.4702
74.4759
74.4525
74.4545
74.4578
74.4624
74.4678
74.4739
74.4452
74.4478
74.4518
74.4571
74.4633
74.47
74.4352
74.4386
74.4435
74.4498
74.4569
74.4645
74.4224
74.4267
74.4328
74.4404
74.4488
74.4577
74.4064
74.4119
74.4197
74.429
74.4393
74.4498
74.3869
74.3939
74.4039
74.4156
74.4283
74.441
74.3626
74.3717
74.385
74.4
74.416
74.4316
74.3324
74.3442
74.3626
74.3819
74.4024
74.4216
74.2912
74.307
74.3343
74.3601
74.3873
74.4113
74.2421
74.2616
74.3023
74.3358
74.3718
74.4013
74.179
74.2556
74.3031
74.3542
74.3912
74.1135
74.2226
74.276
74.3416
74.3843
73.8593
74.1466
74.2278
74.3265
74.3784
73.9068
74.1741
74.2326
74.3329
74.3831
73.9429
74.1997
74.2503
74.3466
74.3939
73.9719
74.2232
74.2734
74.3637
74.4082
74.0443
74.2654
74.3101
74.3873
74.4266
74.1276
74.307
74.3485
74.4121
74.4463
74.3457
74.396
74.4135
74.4463
74.4702
74.3976
74.4242
74.4417
74.4672
74.4885
74.4592
74.4622
74.4712
74.4881
74.5058
74.4724
74.4751
74.4856
74.5022
74.5203
73.8376
73.8385
73.8383
73.8368
73.8324
73.8191
73.8197
73.8195
73.8183
73.8143
73.8042
73.8056
73.8053
73.8032
73.7982
73.8339
73.8356
73.8355
73.8335
73.8289
73.8306
73.8327
73.8326
73.8303
73.8252
73.8409
73.8431
73.8431
73.841
73.8361
73.8199
73.8222
73.8223
73.8202
73.8154
73.7929
73.7951
73.7954
73.7936
73.7892
73.749
73.7511
73.7515
73.7501
73.7464
73.6856
73.6875
73.6879
73.6869
73.6839
73.611
73.6133
73.6142
73.6137
73.6119
73.6094
73.4787
73.4818
73.4824
73.4818
73.4809
73.4802
73.4155
73.4249
73.4271
73.4261
73.4246
73.4245
73.4033
73.4032
73.4036
73.4049
73.4077
73.4125
73.4173
73.4163
73.4175
73.4209
73.4263
73.4333
73.4285
73.4288
73.431
73.435
73.4402
73.4467
73.4372
73.4377
73.44
73.4438
73.4487
73.4547
73.4417
73.4422
73.4447
73.4486
73.4536
73.4596
73.4426
73.4438
73.4466
73.4508
73.4562
73.4622
73.4403
73.442
73.4454
73.4501
73.4558
73.4621
73.4345
73.4369
73.441
73.4463
73.4526
73.4593
73.4254
73.4286
73.4335
73.4397
73.4469
73.4543
73.4129
73.417
73.423
73.4305
73.4389
73.4475
73.3965
73.4017
73.4094
73.4187
73.4288
73.4391
73.3754
73.3821
73.3922
73.404
73.4168
73.4294
73.3472
73.3562
73.3704
73.386
73.4027
73.4185
73.3093
73.3217
73.3427
73.364
73.3863
73.4066
73.25
73.2686
73.3046
73.3353
73.367
73.3934
73.1695
73.1952
73.2574
73.3004
73.3456
73.3799
72.9691
73.0156
73.1734
73.2455
73.3185
73.3647
72.8319
73.1061
73.1938
73.2966
73.3529
71.5371
72.8753
73.0683
73.2625
73.339
71.6256
72.9166
73.0657
73.2682
73.343
71.6939
72.9484
73.0888
73.2847
73.3558
71.784
72.99
73.1269
73.3082
73.3743
71.9867
73.0711
73.1902
73.3422
73.3985
72.222
73.1618
73.2582
73.3768
73.4233
73.2012
73.3512
73.3822
73.4272
73.4541
73.3178
73.387
73.4154
73.4493
73.4733
73.4298
73.4413
73.453
73.4723
73.4905
73.4442
73.45
73.4621
73.4806
73.4994
72.8365
72.8375
72.8373
72.8358
72.8313
72.8183
72.8188
72.8186
72.8175
72.8135
72.7996
72.8008
72.8004
72.7984
72.7937
72.8225
72.8235
72.8234
72.822
72.8179
72.7989
72.8009
72.8008
72.7986
72.7938
72.8055
72.8076
72.8076
72.8055
72.8008
72.78
72.7823
72.7824
72.7803
72.7757
72.7512
72.7534
72.7536
72.7518
72.7475
72.7056
72.7075
72.7078
72.7063
72.7027
72.6322
72.6333
72.6335
72.6324
72.6297
72.4957
72.495
72.4949
72.4949
72.4944
72.2838
72.2729
72.2713
72.2735
72.2774
72.2815
72.3823
72.3786
72.3792
72.3814
72.3845
72.388
72.3833
72.3851
72.3855
72.3855
72.3858
72.3873
72.3995
72.3981
72.3982
72.3996
72.4027
72.4076
72.4114
72.4101
72.4106
72.4129
72.4173
72.4231
72.4226
72.4218
72.4233
72.4266
72.4313
72.4373
72.4294
72.4291
72.431
72.4344
72.4392
72.4449
72.4314
72.4317
72.4341
72.4379
72.4428
72.4485
72.429
72.4301
72.4331
72.4374
72.4427
72.4485
72.4229
72.4249
72.4286
72.4336
72.4394
72.4457
72.4135
72.4163
72.4209
72.4268
72.4335
72.4406
72.4006
72.4043
72.41
72.4172
72.4253
72.4337
72.3835
72.3883
72.3958
72.4049
72.415
72.4251
72.361
72.3675
72.3776
72.3895
72.4024
72.4151
72.3301
72.3393
72.3541
72.3702
72.3874
72.4037
72.2878
72.3009
72.3237
72.3462
72.3697
72.3909
72.2188
72.2386
72.2802
72.3137
72.3482
72.3764
72.1269
72.1521
72.2269
72.2739
72.3241
72.361
71.868
71.9049
72.1235
72.2059
72.2917
72.343
71.7443
71.709
72.0598
72.1459
72.2668
72.329
69.2247
71.7751
71.9669
72.2223
72.3105
69.9293
71.9057
71.9864
72.2319
72.3155
69.9016
71.9285
72.0099
72.2481
72.3289
69.9688
71.9693
72.0534
72.2736
72.3488
70.2471
72.0543
72.1242
72.3111
72.375
70.1755
72.0917
72.1846
72.3456
72.4
72.1509
72.32
72.3436
72.4011
72.4326
72.2571
72.3569
72.3862
72.4263
72.4527
72.405
72.4202
72.4314
72.4522
72.4713
72.4204
72.4293
72.4414
72.4604
72.4794
71.8065
71.8079
71.8077
71.806
71.8018
71.7712
71.7732
71.7731
71.7709
71.7663
71.7783
71.7804
71.7804
71.7783
71.7738
71.7529
71.7552
71.7553
71.7532
71.7487
71.7288
71.7311
71.7313
71.7294
71.7252
71.7007
71.7028
71.7031
71.7015
71.6978
71.6533
71.6553
71.6556
71.6542
71.6509
71.6419
71.6436
71.6439
71.6428
71.64
57.2355
-2.00747
-2.92591
-3.10171
-3.10707
-3.06817
55.8499
70.8123
70.8141
70.8139
70.812
70.8077
70.7401
70.7421
70.7421
70.7399
70.7353
70.7568
70.759
70.759
70.7569
70.7524
70.734
70.7363
70.7364
70.7343
70.7299
70.7115
70.7138
70.714
70.7121
70.7079
70.6866
70.6888
70.689
70.6874
70.6836
70.6293
70.6313
70.6316
70.6301
70.6268
70.6577
70.6594
70.6597
70.6584
70.6556
-7.33541
-6.87256
-7.53111
-7.07983
-7.17614
-7.17944
-7.22689
-6.92592
-7.94143
-7.94258
-7.94348
-7.94415
-7.94463
-7.94139
-7.94258
-7.94349
-7.94418
-7.94466
-7.94139
-7.94255
-7.94345
-7.94413
-7.94462
-7.94466
-7.94425
-7.94382
-7.94337
-7.94294
-7.94437
-7.94397
-7.94348
-7.94313
-7.94285
-7.94441
-7.94401
-7.94353
-7.94308
-7.94263
-7.94492
-7.94442
-7.94379
-7.94313
-7.94254
-7.94203
-7.94622
-7.94557
-7.94473
-7.94382
-7.94296
-7.94225
-7.94797
-7.94721
-7.94625
-7.94511
-7.94404
-7.94314
-7.94987
-7.9492
-7.9483
-7.94697
-7.94571
-7.94461
-7.95189
-7.95135
-7.95088
-7.94938
-7.94793
-7.94658
-7.954
-7.95416
-7.95451
-7.95259
-7.95073
-7.94893
-7.95668
-7.95543
-7.95943
-7.95682
-7.95413
-7.95159
-7.96268
-7.96229
-7.96723
-7.96205
-7.95796
-7.95444
-7.96636
-7.96407
-7.97269
-7.96524
-7.9609
-7.95687
-7.97001
-7.96585
-7.96205
-7.95848
-7.96354
-7.96329
-7.96166
-7.95932
-7.96218
-7.96273
-7.96201
-7.96039
-7.96287
-7.96352
-7.96328
-7.96201
-7.96619
-7.96595
-7.96579
-7.96442
-7.97317
-7.97035
-7.96994
-7.9678
-7.98845
-7.97756
-7.97657
-7.97234
-8.02367
-7.98786
-7.98623
-7.97787
-7.84908
-7.82732
-8.21184
-8.00946
-8.00395
-7.98497
-7.64273
-7.69372
-8.29791
-8.01492
-8.01543
-7.99008
-7.70584
-7.72731
-8.29603
-8.01886
-8.0201
-7.99369
-7.69373
-7.72172
-8.2732
-8.01931
-8.02015
-7.99595
-7.79364
-8.2117
-8.02419
-8.01934
-7.99824
-7.82788
-8.16609
-8.0216
-8.01498
-7.99845
-8.27946
-8.11043
-8.03916
-8.01511
-7.9998
-8.05131
-8.03763
-8.01369
-8.00431
-7.99582
-8.03658
-8.02476
-8.01014
-8.00122
-7.99402
-8.01983
-8.01435
-8.00556
-7.99863
-7.99235
-8.9514
-8.95253
-8.95341
-8.95406
-8.95451
-8.95138
-8.95252
-8.95341
-8.95406
-8.95452
-8.95133
-8.95247
-8.95336
-8.95402
-8.95449
-8.9554
-8.95492
-8.95452
-8.95415
-8.95368
-8.95515
-8.95468
-8.95421
-8.95376
-8.95335
-8.95525
-8.9547
-8.95411
-8.95355
-8.95308
-8.95597
-8.95523
-8.95439
-8.95355
-8.95285
-8.95731
-8.9564
-8.95533
-8.9542
-8.95322
-8.95257
-8.95899
-8.958
-8.95685
-8.95548
-8.95425
-8.95337
-8.96065
-8.95982
-8.95885
-8.95735
-8.95589
-8.95473
-8.96198
-8.96151
-8.96123
-8.95974
-8.95806
-8.95657
-8.96235
-8.96305
-8.96443
-8.9629
-8.9608
-8.95885
-8.96191
-8.96258
-8.96868
-8.9672
-8.96424
-8.96161
-8.96347
-8.96486
-8.97411
-8.97285
-8.96817
-8.96481
-8.97585
-8.9755
-8.98124
-8.9771
-8.97162
-8.96766
-8.98024
-8.97768
-8.97302
-8.96947
-8.97316
-8.97396
-8.97237
-8.97027
-8.97122
-8.97284
-8.97251
-8.97129
-8.97111
-8.97314
-8.97348
-8.97282
-8.97315
-8.97494
-8.97558
-8.97505
-8.97769
-8.97829
-8.97906
-8.97812
-8.98617
-8.98342
-8.98424
-8.98211
-9.00445
-8.99036
-8.99146
-8.98688
-8.84813
-8.85898
-9.0495
-9.00051
-9.00111
-8.99238
-8.81767
-8.79344
-9.05782
-9.00289
-9.00811
-8.9968
-8.92649
-8.84171
-9.05626
-9.00698
-9.01271
-9.00045
-8.91133
-8.83007
-9.05375
-9.00803
-9.01441
-9.00297
-8.98793
-8.89485
-9.06481
-9.01884
-9.01784
-9.00612
-8.88331
-9.05489
-9.01827
-9.01641
-9.00691
-9.11988
-9.09534
-9.03903
-9.02125
-9.00897
-9.05369
-9.04449
-9.02257
-9.01365
-9.00576
-9.03634
-9.02884
-9.01622
-9.00916
-9.00302
-9.02551
-9.02014
-9.01122
-9.00529
-9.00009
-9.96159
-9.96267
-9.9635
-9.96412
-9.96455
-9.9616
-9.9627
-9.96354
-9.96416
-9.96458
-9.96148
-9.96258
-9.96343
-9.96407
-9.96451
-9.96634
-9.96572
-9.96525
-9.9649
-9.96443
-9.96618
-9.96555
-9.96501
-9.96449
-9.96395
-9.96648
-9.96565
-9.96484
-9.96409
-9.96349
-9.96756
-9.96643
-9.96524
-9.9641
-9.96318
-9.96918
-9.96777
-9.96626
-9.96475
-9.96351
-9.97097
-9.96943
-9.96779
-9.966
-9.96448
-9.96351
-9.97262
-9.97113
-9.96968
-9.96775
-9.966
-9.96482
-9.97341
-9.97242
-9.97184
-9.96992
-9.96798
-9.96656
-9.97285
-9.97266
-9.97444
-9.97266
-9.97045
-9.96871
-9.97046
-9.9718
-9.97804
-9.97633
-9.97356
-9.97136
-9.97005
-9.97172
-9.98229
-9.98128
-9.97738
-9.97448
-9.97603
-9.97819
-9.99025
-9.9866
-9.98116
-9.9777
-9.99063
-9.98846
-9.98311
-9.97981
-9.98292
-9.98393
-9.98237
-9.98064
-9.98072
-9.98253
-9.9825
-9.98171
-9.98007
-9.98247
-9.98335
-9.98321
-9.98168
-9.98391
-9.98522
-9.98535
-9.98563
-9.98684
-9.98832
-9.98825
-9.99259
-9.99101
-9.99271
-9.99188
-10.0089
-9.99692
-9.99889
-9.99624
-9.81423
-9.90097
-10.0287
-10.0055
-10.0058
-10.001
-9.85465
-9.86639
-10.0458
-10.0116
-10.0136
-10.0057
-9.96928
-9.91262
-10.0468
-10.0156
-10.0191
-10.0097
-9.95917
-9.90019
-10.0443
-10.0162
-10.0214
-10.0125
-10.0328
-9.95835
-10.0675
-10.0291
-10.0262
-10.0164
-9.97607
-9.94301
-10.0499
-10.0267
-10.0249
-10.0175
-10.0935
-10.0853
-10.044
-10.0296
-10.0198
-10.0645
-10.0523
-10.0324
-10.0241
-10.0172
-10.0458
-10.0375
-10.0257
-10.0195
-10.0141
-10.0339
-10.0284
-10.0204
-10.0153
-10.0108
-10.9721
-10.9731
-10.9739
-10.9745
-10.9748
-10.9722
-10.9732
-10.974
-10.9746
-10.9749
-10.9719
-10.973
-10.9738
-10.9744
-10.9748
-10.9776
-10.9768
-10.9762
-10.9757
-10.9752
-10.9775
-10.9767
-10.9759
-10.9753
-10.9746
-10.9781
-10.9769
-10.9757
-10.9747
-10.9739
-10.9796
-10.9779
-10.9763
-10.9747
-10.9735
-10.9816
-10.9795
-10.9774
-10.9754
-10.9739
-10.9835
-10.9812
-10.9789
-10.9766
-10.9748
-10.9852
-10.9828
-10.9807
-10.9782
-10.9761
-10.9748
-10.9853
-10.9836
-10.9824
-10.98
-10.9778
-10.9764
-10.9847
-10.9831
-10.9843
-10.9821
-10.9798
-10.9782
-10.981
-10.9814
-10.987
-10.9848
-10.9823
-10.9805
-10.9816
-10.9822
-10.9909
-10.989
-10.9855
-10.9835
-10.986
-10.988
-10.9994
-10.9944
-10.9897
-10.9869
-10.9996
-10.9975
-10.9922
-10.9893
-10.992
-10.993
-10.9916
-10.9903
-10.9898
-10.9917
-10.9919
-10.9916
-10.9887
-10.9914
-10.9928
-10.9931
-10.9897
-10.9924
-10.9944
-10.9951
-10.9925
-10.9946
-10.9969
-10.9978
-10.9973
-10.9975
-11.0003
-11.001
-11.0093
-11.0019
-11.0049
-11.0047
-10.8272
-10.9488
-11.0103
-11.0084
-11.0095
-11.0085
-10.871
-10.9126
-11.033
-11.0166
-11.0175
-11.0132
-10.9652
-10.9447
-11.0386
-11.0184
-11.0232
-11.0174
-10.9591
-10.9326
-11.037
-11.018
-11.0259
-11.0204
-11.0281
-10.9849
-11.0658
-11.0321
-11.0316
-11.0248
-10.9982
-10.9781
-11.0464
-11.03
-11.0311
-11.0265
-11.0782
-11.0753
-11.0753
-11.0451
-11.0359
-11.0293
-11.0601
-11.0539
-11.0381
-11.0325
-11.0279
-11.051
-11.043
-11.033
-11.0288
-11.0252
-11.0403
-11.0349
-11.0283
-11.0248
-11.0218
-11.9828
-11.9838
-11.9845
-11.985
-11.9853
-11.9829
-11.9839
-11.9846
-11.9851
-11.9854
-11.9826
-11.9836
-11.9844
-11.9849
-11.9853
-11.9892
-11.9882
-11.9872
-11.9867
-11.9861
-11.9892
-11.988
-11.987
-11.9862
-11.9853
-11.9901
-11.9884
-11.9868
-11.9854
-11.9844
-11.992
-11.9897
-11.9875
-11.9854
-11.9839
-11.9943
-11.9915
-11.9887
-11.9862
-11.9843
-11.9965
-11.9933
-11.9903
-11.9873
-11.9851
-11.9982
-11.9948
-11.9919
-11.9887
-11.9864
-11.998
-11.995
-11.9931
-11.9901
-11.9877
-11.9863
-11.9963
-11.994
-11.9943
-11.9915
-11.9892
-11.9878
-11.9929
-11.9916
-11.9962
-11.9933
-11.9911
-11.9899
-11.9935
-11.9929
-11.9997
-11.997
-11.9938
-11.9927
-11.9966
-11.9971
-12.0081
-12.002
-11.9982
-11.9961
-12.0081
-12.0059
-12.001
-11.9987
-12.0009
-12.0018
-12.0009
-12
-11.999
-12.001
-12.0015
-12.0016
-11.9977
-12.0007
-12.0025
-12.0033
-11.9984
-12.0015
-12.0041
-12.0055
-12.0004
-12.0032
-12.0064
-12.0081
-12.0037
-12.0052
-12.0091
-12.0111
-12.0133
-12.0084
-12.0126
-12.0145
-11.8817
-11.9935
-12.0028
-12.014
-12.0159
-12.0176
-11.9148
-11.9539
-12.0254
-12.0248
-12.0241
-12.0224
-11.9829
-11.9753
-12.0316
-12.028
-12.0306
-12.0271
-11.9778
-11.9645
-12.0328
-12.0263
-12.0339
-12.0305
-12.0351
-12.0087
-12.0649
-12.0405
-12.0403
-12.0355
-12.0168
-12.0056
-12.0488
-12.0388
-12.0404
-12.0378
-12.0724
-12.0673
-12.0726
-12.051
-12.0448
-12.0408
-12.0612
-12.0607
-12.0584
-12.0463
-12.0427
-12.0402
-12.0567
-12.0503
-12.0425
-12.0399
-12.0381
-12.0479
-12.0433
-12.0384
-12.0365
-12.0351
-12.9938
-12.9947
-12.9953
-12.9958
-12.996
-12.9939
-12.9948
-12.9954
-12.9959
-12.9961
-12.9936
-12.9945
-12.9952
-12.9957
-12.9959
-13.001
-12.9997
-12.9985
-12.9978
-12.9971
-13.0011
-12.9996
-12.9982
-12.9971
-12.996
-13.0024
-13.0002
-12.998
-12.9962
-12.9949
-13.0047
-13.0017
-12.9988
-12.9962
-12.9944
-13.0073
-13.0037
-13.0002
-12.997
-12.9947
-13.0097
-13.0056
-13.0017
-12.9982
-12.9956
-13.0111
-13.0068
-13.0031
-12.9994
-12.9967
-13.0107
-13.0065
-13.004
-13.0004
-12.9978
-13.0079
-13.0049
-13.0044
-13.0012
-12.9989
-12.9981
-13.0053
-13.0025
-13.0058
-13.0024
-13.0003
-12.9999
-13.0059
-13.0037
-13.0091
-13.0056
-13.0028
-13.0025
-13.0082
-13.0067
-13.017
-13.0102
-13.0073
-13.0057
-13.0168
-13.0146
-13.0104
-13.0086
-13.0101
-13.0112
-13.0107
-13.0103
-13.0085
-13.0108
-13.0117
-13.0123
-13.0074
-13.0107
-13.0129
-13.0143
-13.0079
-13.0115
-13.0145
-13.0167
-13.0094
-13.0127
-13.0166
-13.0194
-13.0114
-13.0138
-13.0188
-13.0222
-13.0187
-13.0155
-13.0214
-13.0252
-12.9564
-13.0409
-13.0074
-13.019
-13.0241
-13.028
-12.9682
-12.9903
-13.0279
-13.0305
-13.0319
-13.0328
-13.0087
-13.0044
-13.033
-13.0385
-13.039
-13.0379
-13.0024
-12.9951
-13.0356
-13.0381
-13.0431
-13.0419
-13.047
-13.0315
-13.0684
-13.0513
-13.0502
-13.0473
-13.0351
-13.0298
-13.0564
-13.0501
-13.051
-13.05
-13.0741
-13.0681
-13.0749
-13.0593
-13.055
-13.0532
-13.0653
-13.0646
-13.0647
-13.0558
-13.0538
-13.0532
-13.0657
-13.0631
-13.0585
-13.0528
-13.0519
-13.0518
-13.0559
-13.0526
-13.0494
-13.0492
-13.0495
-14.0049
-14.0057
-14.0063
-14.0067
-14.0068
-14.005
-14.0058
-14.0064
-14.0068
-14.007
-14.0047
-14.0055
-14.0061
-14.0065
-14.0068
-14.0132
-14.0115
-14.01
-14.0091
-14.0083
-14.0134
-14.0114
-14.0096
-14.0082
-14.0069
-14.015
-14.0122
-14.0094
-14.0072
-14.0056
-14.0176
-14.014
-14.0103
-14.0072
-14.005
-14.0204
-14.0161
-14.0119
-14.0081
-14.0055
-14.0227
-14.018
-14.0134
-14.0093
-14.0065
-14.0239
-14.0189
-14.0146
-14.0104
-14.0076
-14.0227
-14.0182
-14.0151
-14.0111
-14.0086
-14.0199
-14.0158
-14.015
-14.0115
-14.0095
-14.018
-14.014
-14.0163
-14.0123
-14.0108
-14.0109
-14.0186
-14.0149
-14.0193
-14.0152
-14.0133
-14.0133
-14.0205
-14.0167
-14.0266
-14.0197
-14.0178
-14.0164
-14.0263
-14.0244
-14.0211
-14.0196
-14.0202
-14.0217
-14.0218
-14.0218
-14.0192
-14.0219
-14.0233
-14.0243
-14.0184
-14.0221
-14.0248
-14.0268
-14.019
-14.0231
-14.0267
-14.0295
-14.0203
-14.0242
-14.0288
-14.0323
-14.0219
-14.025
-14.0309
-14.0352
-14.0274
-14.0256
-14.0329
-14.0382
-14.0378
-14.0894
-14.0216
-14.0295
-14.0357
-14.041
-14.0164
-14.0225
-14.0375
-14.0401
-14.0432
-14.0458
-14.0358
-14.032
-14.0429
-14.0502
-14.0511
-14.0515
-14.0267
-14.0226
-14.0445
-14.0533
-14.0563
-14.0561
-14.0599
-14.0525
-14.0762
-14.0653
-14.0636
-14.0617
-14.0524
-14.0515
-14.0678
-14.0645
-14.0647
-14.0646
-14.0801
-14.0748
-14.0818
-14.071
-14.0679
-14.0674
-14.0724
-14.0719
-14.0738
-14.0677
-14.0669
-14.0678
-14.0741
-14.0714
-14.0687
-14.0649
-14.0655
-14.0669
-14.068
-14.0654
-14.0635
-14.062
-14.0634
-14.0651
-15.0162
-15.017
-15.0175
-15.0177
-15.0178
-15.0163
-15.017
-15.0176
-15.0178
-15.0179
-15.016
-15.0167
-15.0173
-15.0176
-15.0177
-15.0256
-15.0237
-15.0218
-15.0207
-15.0198
-15.026
-15.0236
-15.0213
-15.0195
-15.0181
-15.0279
-15.0245
-15.0212
-15.0184
-15.0168
-15.0306
-15.0264
-15.0222
-15.0185
-15.0162
-15.0335
-15.0287
-15.0239
-15.0196
-15.0169
-15.0357
-15.0305
-15.0255
-15.0209
-15.0182
-15.0363
-15.0311
-15.0266
-15.0219
-15.0195
-15.0347
-15.0301
-15.0269
-15.0225
-15.0206
-15.0324
-15.0274
-15.0266
-15.0227
-15.0216
-15.0312
-15.0261
-15.0279
-15.0235
-15.023
-15.0318
-15.0267
-15.0308
-15.0263
-15.0258
-15.0256
-15.0335
-15.0274
-15.0374
-15.0309
-15.0301
-15.0289
-15.0372
-15.0359
-15.0336
-15.0325
-15.0319
-15.034
-15.0348
-15.0353
-15.0315
-15.0348
-15.0369
-15.0384
-15.0312
-15.0355
-15.0389
-15.0415
-15.0323
-15.0369
-15.0412
-15.0447
-15.0337
-15.0381
-15.0435
-15.0479
-15.0355
-15.0392
-15.0458
-15.0511
-15.0396
-15.0394
-15.0478
-15.0541
-15.1126
-15.1327
-15.0418
-15.0458
-15.0517
-15.0574
-15.0505
-15.0521
-15.0519
-15.0542
-15.0586
-15.0621
-15.062
-15.0586
-15.0582
-15.0652
-15.0667
-15.0679
-15.0498
-15.0476
-15.0583
-15.0699
-15.0721
-15.0726
-15.0741
-15.0723
-15.0869
-15.0809
-15.0792
-15.0779
-15.0693
-15.0715
-15.0814
-15.0804
-15.0803
-15.0805
-15.0888
-15.0852
-15.0916
-15.0846
-15.0825
-15.0829
-15.082
-15.082
-15.0848
-15.0812
-15.0814
-15.0833
-15.0836
-15.0813
-15.0804
-15.0785
-15.0802
-15.0828
-15.0785
-15.076
-15.0756
-15.0759
-15.0785
-15.0815
-16.0277
-16.0284
-16.0288
-16.029
-16.029
-16.0278
-16.0285
-16.0289
-16.0291
-16.0291
-16.0275
-16.0282
-16.0286
-16.0289
-16.0289
-16.0385
-16.0363
-16.0342
-16.0329
-16.0319
-16.039
-16.0362
-16.0335
-16.0313
-16.0299
-16.0412
-16.0373
-16.0335
-16.0302
-16.0286
-16.044
-16.0394
-16.0347
-16.0304
-16.0282
-16.0469
-16.0417
-16.0365
-16.0317
-16.0293
-16.0487
-16.0434
-16.0382
-16.0333
-16.031
-16.0488
-16.0437
-16.0392
-16.0345
-16.0326
-16.0473
-16.0425
-16.0394
-16.0352
-16.034
-16.0456
-16.0402
-16.0393
-16.0354
-16.0353
-16.0451
-16.0391
-16.0407
-16.0364
-16.0371
-16.0457
-16.0394
-16.0437
-16.0395
-16.04
-16.0473
-16.0392
-16.0497
-16.044
-16.0443
-16.0435
-16.0498
-16.0495
-16.0482
-16.0477
-16.0455
-16.0483
-16.05
-16.0512
-16.0458
-16.0498
-16.0527
-16.055
-16.0463
-16.0511
-16.0552
-16.0587
-16.048
-16.053
-16.058
-16.0624
-16.0498
-16.0546
-16.0607
-16.0659
-16.0521
-16.0563
-16.0635
-16.0695
-16.0553
-16.0567
-16.0656
-16.0725
-16.1645
-16.1672
-16.0644
-16.0669
-16.0711
-16.0766
-16.0734
-16.0783
-16.0694
-16.072
-16.077
-16.081
-16.0862
-16.0836
-16.0769
-16.0832
-16.085
-16.0866
-16.0708
-16.0704
-16.0753
-16.0875
-16.09
-16.091
-16.089
-16.0911
-16.0999
-16.0976
-16.0964
-16.0956
-16.0858
-16.0901
-16.0964
-16.0972
-16.0971
-16.0976
-16.0995
-16.0978
-16.1035
-16.0995
-16.0982
-16.0993
-16.0931
-16.0938
-16.0975
-16.0959
-16.0968
-16.0995
-16.0943
-16.0927
-16.0933
-16.0931
-16.0957
-16.0992
-16.0896
-16.0877
-16.0888
-16.0906
-16.0944
-16.0982
-17.0394
-17.04
-17.0404
-17.0405
-17.0404
-17.0395
-17.0401
-17.0405
-17.0406
-17.0404
-17.0391
-17.0398
-17.0402
-17.0403
-17.0402
-17.0522
-17.0497
-17.0474
-17.0459
-17.045
-17.0527
-17.0496
-17.0465
-17.044
-17.0427
-17.0551
-17.0508
-17.0466
-17.0428
-17.0414
-17.0579
-17.053
-17.048
-17.0432
-17.0413
-17.0606
-17.0554
-17.05
-17.0449
-17.043
-17.0621
-17.057
-17.0518
-17.0469
-17.0451
-17.062
-17.0573
-17.0529
-17.0486
-17.0471
-17.0609
-17.0559
-17.0532
-17.0496
-17.0488
-17.0598
-17.0541
-17.0533
-17.0503
-17.0505
-17.0599
-17.0533
-17.0549
-17.0516
-17.0528
-17.0606
-17.0533
-17.0581
-17.0548
-17.0561
-17.0622
-17.0525
-17.0637
-17.0593
-17.0606
-17.0645
-17.0651
-17.065
-17.0653
-17.0612
-17.0647
-17.0674
-17.0694
-17.0624
-17.0669
-17.0707
-17.0738
-17.0637
-17.0688
-17.0737
-17.078
-17.0661
-17.0713
-17.077
-17.0821
-17.0682
-17.0734
-17.08
-17.086
-17.0713
-17.0758
-17.0834
-17.0898
-17.0736
-17.0765
-17.0856
-17.093
-17.1922
-17.1936
-17.087
-17.0899
-17.0924
-17.0977
-17.0936
-17.102
-17.0893
-17.0925
-17.0974
-17.1016
-17.1073
-17.1066
-17.0972
-17.1029
-17.1049
-17.1068
-17.0898
-17.0914
-17.0938
-17.106
-17.109
-17.1104
-17.104
-17.1088
-17.1143
-17.1148
-17.1144
-17.114
-17.1017
-17.1073
-17.1119
-17.1141
-17.1145
-17.1152
-17.1111
-17.1113
-17.1166
-17.115
-17.1147
-17.1161
-17.1051
-17.1067
-17.1109
-17.1112
-17.1128
-17.116
-17.1056
-17.105
-17.107
-17.1083
-17.1116
-17.1158
-17.101
-17.1
-17.1025
-17.1058
-17.1105
-17.115
-18.0514
-18.0519
-18.0522
-18.0522
-18.052
-18.0514
-18.052
-18.0523
-18.0523
-18.0521
-18.0511
-18.0516
-18.052
-18.052
-18.0519
-18.0668
-18.0642
-18.0618
-18.06
-18.0592
-18.0674
-18.064
-18.0606
-18.0577
-18.0566
-18.0699
-18.0654
-18.0608
-18.0567
-18.0556
-18.0727
-18.0677
-18.0623
-18.0573
-18.0558
-18.0752
-18.0701
-18.0645
-18.0595
-18.058
-18.0765
-18.0717
-18.0665
-18.062
-18.0606
-18.0765
-18.072
-18.0679
-18.0642
-18.063
-18.0758
-18.0709
-18.0685
-18.0657
-18.0652
-18.0754
-18.0695
-18.0689
-18.067
-18.0674
-18.076
-18.0688
-18.0708
-18.0688
-18.0702
-18.0767
-18.0684
-18.074
-18.0721
-18.074
-18.0784
-18.0673
-18.0795
-18.0765
-18.0788
-18.0812
-18.0828
-18.0838
-18.0789
-18.0831
-18.0867
-18.0896
-18.081
-18.0859
-18.0905
-18.0945
-18.083
-18.0884
-18.0939
-18.099
-18.086
-18.0914
-18.0976
-18.1035
-18.0885
-18.0938
-18.1009
-18.1074
-18.0922
-18.0968
-18.1046
-18.1114
-18.094
-18.0978
-18.1068
-18.1145
-18.2088
-18.215
-18.1093
-18.1129
-18.1145
-18.1195
-18.115
-18.1254
-18.1106
-18.1142
-18.1187
-18.123
-18.1258
-18.1278
-18.1179
-18.1233
-18.1254
-18.1274
-18.1076
-18.111
-18.1128
-18.1248
-18.1283
-18.13
-18.1187
-18.1254
-18.1292
-18.1319
-18.1325
-18.1325
-18.1167
-18.1233
-18.1272
-18.1308
-18.1319
-18.1329
-18.123
-18.1249
-18.13
-18.1306
-18.1312
-18.133
-18.1173
-18.1198
-18.1246
-18.1266
-18.129
-18.1325
-18.1171
-18.1175
-18.1208
-18.1236
-18.1276
-18.1323
-18.1124
-18.1124
-18.1163
-18.121
-18.1265
-18.1314
-19.0636
-19.0641
-19.0643
-19.0642
-19.0639
-19.0636
-19.0641
-19.0644
-19.0643
-19.064
-19.0633
-19.0638
-19.0641
-19.0641
-19.0638
-19.0828
-19.0801
-19.0775
-19.0757
-19.075
-19.0835
-19.0798
-19.0762
-19.0729
-19.0721
-19.086
-19.0813
-19.0765
-19.072
-19.0713
-19.0887
-19.0837
-19.078
-19.073
-19.0719
-19.091
-19.0862
-19.0806
-19.0757
-19.0746
-19.0923
-19.0877
-19.0829
-19.0787
-19.0776
-19.0925
-19.0881
-19.0847
-19.0813
-19.0805
-19.0922
-19.0873
-19.0857
-19.0834
-19.0832
-19.0923
-19.0862
-19.0865
-19.0852
-19.086
-19.0933
-19.0857
-19.0885
-19.0874
-19.0893
-19.0941
-19.085
-19.0917
-19.091
-19.0936
-19.0959
-19.0838
-19.0969
-19.0954
-19.0987
-19.0999
-19.1022
-19.1041
-19.0984
-19.103
-19.1074
-19.1012
-19.1063
-19.1116
-19.1164
-19.1037
-19.1092
-19.1153
-19.1211
-19.1072
-19.1125
-19.1192
-19.1256
-19.1099
-19.1152
-19.1226
-19.1295
-19.114
-19.1185
-19.1264
-19.1334
-19.1156
-19.1196
-19.1286
-19.1362
-19.2222
-19.2343
-19.1311
-19.1354
-19.1366
-19.1412
-19.1397
-19.1496
-19.1325
-19.1363
-19.14
-19.1442
-19.1429
-19.1477
-19.1382
-19.1434
-19.1455
-19.1477
-19.1249
-19.1297
-19.1316
-19.1431
-19.1472
-19.1493
-19.1328
-19.1408
-19.144
-19.1485
-19.1501
-19.1507