/*--------------------------------*- C++ -*----------------------------------*\
| =========                 |                                                 |
| \\      /  F ield         | OpenFOAM: The Open Source CFD Toolbox           |
|  \\    /   O peration     | Version:  2.3.1                                 |
|   \\  /    A nd           | Web:      www.OpenFOAM.org                      |
|    \\/     M anipulation  |                                                 |
\*---------------------------------------------------------------------------*/
FoamFile
{
    version     2.0;
    format      ascii;
    class       volScalarField;
    location    "600";
    object      p_rgh;
}
// * * * * * * * * * * * * * * * * * * * * * * * * * * * * * * * * * * * * * //

dimensions      [0 2 -2 0 0 0 0];

internalField   nonuniform List<scalar> 
6852
(
78.4909
78.4928
78.4928
78.4908
78.4855
78.4775
78.4796
78.4795
78.4775
78.472
78.4918
78.4942
78.4942
78.4917
78.4858
78.5338
78.5355
78.5355
78.5336
78.5288
78.5381
78.54
78.54
78.538
78.533
78.5474
78.549
78.549
78.5474
78.5429
78.536
78.5405
78.5424
78.5424
78.5407
78.5361
78.5292
78.5154
78.5173
78.5174
78.5159
78.5117
78.5053
78.4744
78.4762
78.4765
78.4753
78.4716
78.4661
78.4177
78.4194
78.4198
78.419
78.416
78.4116
78.3498
78.3513
78.3519
78.3516
78.3496
78.3465
78.2689
78.2704
78.2711
78.2712
78.2701
78.2683
78.1955
78.197
78.1981
78.1988
78.1987
78.1984
78.1374
78.1388
78.1401
78.1415
78.1425
78.1436
78.0945
78.0959
78.0975
78.0995
78.1015
78.1038
78.0639
78.0655
78.0675
78.07
78.0729
78.0762
78.0423
78.0441
78.0465
78.0495
78.0531
78.0572
78.0259
78.028
78.0308
78.0343
78.0385
78.0433
78.0125
78.0149
78.0182
78.0223
78.0271
78.0326
78.0005
78.0033
78.0072
78.0119
78.0175
78.0236
77.9892
77.9925
77.997
78.0025
78.0088
78.0158
77.9779
77.9818
77.987
77.9934
78.0007
78.0086
77.9663
77.9709
77.977
77.9844
77.9928
78.0018
77.9542
77.9595
77.9666
77.9753
77.985
77.9953
77.9415
77.9476
77.956
77.966
77.9773
77.9891
77.9281
77.9351
77.9449
77.9566
77.9697
77.9833
77.9221
77.9336
77.9471
77.9623
77.9778
77.9089
77.9222
77.9379
77.9554
77.973
77.8967
77.9119
77.9294
77.9494
77.9691
77.8852
77.9025
77.9219
77.9445
77.9664
77.8795
77.8976
77.9175
77.9421
77.9655
77.8752
77.8951
77.9154
77.942
77.9665
77.8853
77.9017
77.9193
77.9456
77.97
77.9004
77.9133
77.9283
77.9529
77.9764
77.9084
77.9212
77.9361
77.9601
77.9831
77.918
77.9312
77.9461
77.9691
77.9912
77.9392
77.949
77.9622
77.9826
78.0029
77.9746
77.9778
77.9861
78.0013
78.0184
78.0013
78.0013
78.0075
78.0195
78.0341
78.0213
78.0202
78.0247
78.035
78.0484
78.0263
78.026
78.0314
78.0418
78.0555
78.4711
78.4728
78.4728
78.4711
78.4658
78.4518
78.4536
78.4536
78.4518
78.4463
78.4586
78.4609
78.4609
78.4586
78.4527
78.4957
78.4978
78.4977
78.4956
78.4904
78.5017
78.504
78.5039
78.5016
78.4962
78.5096
78.5117
78.5117
78.5096
78.5046
78.499
78.501
78.5011
78.4992
78.4944
78.4872
78.4738
78.4757
78.4759
78.4743
78.47
78.4635
78.4331
78.435
78.4353
78.4341
78.4304
78.4248
78.377
78.3788
78.3792
78.3784
78.3754
78.3709
78.3109
78.3126
78.3132
78.3129
78.3109
78.3079
78.2284
78.2299
78.2307
78.2309
78.2299
78.2282
78.1593
78.161
78.1621
78.1629
78.163
78.1628
78.1074
78.1089
78.1102
78.1117
78.1129
78.1142
78.0722
78.0736
78.0752
78.0774
78.0796
78.0821
78.0488
78.0503
78.0523
78.055
78.058
78.0614
78.0324
78.0341
78.0364
78.0395
78.0432
78.0474
78.0195
78.0215
78.0242
78.0277
78.0319
78.0368
78.0083
78.0106
78.0138
78.0178
78.0227
78.0281
77.9978
78.0005
78.0042
78.0089
78.0144
78.0206
77.9873
77.9905
77.9949
78.0004
78.0066
78.0135
77.9765
77.9803
77.9854
77.9918
77.999
78.0069
77.9651
77.9695
77.9756
77.983
77.9914
78.0004
77.9528
77.9581
77.9652
77.9739
77.9837
77.994
77.9396
77.9457
77.9543
77.9645
77.9759
77.9878
77.9253
77.9325
77.9426
77.9546
77.968
77.9818
77.9102
77.9184
77.9304
77.9445
77.9602
77.9762
77.9032
77.9177
77.9342
77.9527
77.971
77.8886
77.9057
77.9245
77.946
77.9667
77.8721
77.8935
77.9149
77.9401
77.9635
77.8634
77.887
77.9088
77.937
77.9622
77.847
77.8797
77.9032
77.9356
77.9625
77.8591
77.8876
77.9067
77.9393
77.9661
77.8743
77.8989
77.9151
77.9464
77.9723
77.8811
77.9063
77.9232
77.954
77.9795
77.8945
77.9199
77.9367
77.9653
77.9896
77.9176
77.9391
77.9557
77.9809
78.0035
77.9641
77.9712
77.9821
78.0005
78.0188
77.9937
77.9944
78.0016
78.0163
78.0326
78.0196
78.0171
78.0211
78.0319
78.0464
78.026
78.0245
78.0298
78.0409
78.0553
78.4334
78.435
78.435
78.4333
78.4279
78.413
78.4148
78.4148
78.413
78.4076
78.4158
78.4181
78.4181
78.4158
78.41
78.4534
78.4556
78.4557
78.4534
78.4481
78.4606
78.4629
78.4628
78.4606
78.4552
78.47
78.4721
78.4721
78.4701
78.4651
78.4564
78.4585
78.4586
78.4566
78.4518
78.4308
78.4329
78.4331
78.4315
78.4271
78.4205
78.3894
78.3915
78.3918
78.3905
78.3868
78.3811
78.3313
78.3332
78.3336
78.3328
78.3298
78.3253
78.2656
78.2673
78.268
78.2677
78.2659
78.263
78.172
78.1734
78.1742
78.1744
78.1736
78.1723
78.1069
78.109
78.1103
78.1111
78.1114
78.1117
78.0631
78.0646
78.0661
78.0676
78.0692
78.0713
78.0383
78.0396
78.0413
78.0437
78.0464
78.05
78.0245
78.0258
78.0279
78.0309
78.0345
78.0389
78.0166
78.0181
78.0205
78.0239
78.0281
78.033
78.0111
78.0128
78.0155
78.0192
78.0238
78.0291
78.0053
78.0073
78.0103
78.0145
78.0195
78.0252
77.9983
78.0007
78.0043
78.0091
78.0147
78.0208
77.9899
77.9929
77.9971
78.0026
78.0089
78.0157
77.9798
77.9834
77.9885
77.9949
78.0022
78.0099
77.9678
77.9723
77.9784
77.986
77.9944
78.0033
77.9538
77.9593
77.9668
77.9758
77.9858
77.9962
77.9376
77.9442
77.9535
77.9644
77.9764
77.9886
77.9185
77.9266
77.9383
77.9517
77.9663
77.9808
77.8964
77.9062
77.9212
77.9377
77.9556
77.973
77.8692
77.8813
77.9014
77.9221
77.9445
77.9653
77.8531
77.8802
77.9057
77.9336
77.9583
77.8104
77.8532
77.8862
77.9224
77.9519
77.7753
77.8333
77.8704
77.9146
77.9479
77.6795
77.7978
77.8479
77.9071
77.9453
77.6878
77.806
77.8487
77.9106
77.9487
77.7123
77.8222
77.8599
77.9198
77.9564
77.7298
77.8366
77.8742
77.9313
77.9665
77.7645
77.8614
77.8966
77.9474
77.9798
77.8097
77.8897
77.9228
77.966
77.9953
77.9217
77.9462
77.9639
77.9914
78.0147
77.9664
77.9778
77.9912
78.0123
78.0327
78.0103
78.0104
78.018
78.0327
78.0493
78.0211
78.0215
78.0303
78.0448
78.0615
78.4019
78.4032
78.4031
78.4016
78.3965
78.3817
78.383
78.3829
78.3812
78.3763
78.3741
78.3765
78.3764
78.3739
78.368
78.4116
78.414
78.414
78.4116
78.4062
78.4198
78.4221
78.4221
78.4197
78.4143
78.4312
78.4334
78.4334
78.4312
78.4262
78.4144
78.4167
78.4168
78.4147
78.4098
78.3886
78.3908
78.391
78.3893
78.3848
78.3466
78.3488
78.3491
78.3477
78.3439
78.2864
78.2884
78.2889
78.2879
78.2849
78.2804
78.2211
78.223
78.2237
78.2233
78.2215
78.2188
78.1065
78.1076
78.1082
78.1083
78.1078
78.1071
78.0459
78.048
78.0492
78.05
78.0504
78.0515
78.0163
78.0169
78.018
78.0197
78.0218
78.0248
78.0068
78.0075
78.0091
78.0115
78.0144
78.0183
78.004
78.0048
78.0066
78.0093
78.0128
78.0173
78.0043
78.0052
78.0073
78.0104
78.0144
78.0195
78.0043
78.0055
78.0078
78.0113
78.0158
78.0211
78.0023
78.0039
78.0066
78.0106
78.0155
78.0212
77.9977
77.9998
78.0031
78.0076
78.0131
78.0192
77.9904
77.9931
77.9971
78.0024
78.0086
78.0153
77.9805
77.9838
77.9887
77.995
78.0022
78.0098
77.9676
77.9719
77.978
77.9856
77.9941
78.003
77.9516
77.9572
77.9649
77.9743
77.9845
77.9951
77.9321
77.9392
77.9492
77.9609
77.9736
77.9863
77.9078
77.9169
77.9303
77.9452
77.9613
77.9768
77.8777
77.8895
77.9078
77.9271
77.9477
77.9669
77.8364
77.8522
77.8796
77.9054
77.9326
77.9566
77.7874
77.8069
77.8476
77.881
77.917
77.9465
77.7243
77.8008
77.8484
77.8995
77.9365
77.6587
77.7679
77.8213
77.8869
77.9296
77.4046
77.6918
77.7731
77.8717
77.9236
77.4521
77.7193
77.7779
77.8782
77.9284
77.4882
77.7449
77.7956
77.8919
77.9392
77.5172
77.7684
77.8187
77.909
77.9534
77.5895
77.8107
77.8553
77.9326
77.9718
77.6728
77.8522
77.8938
77.9573
77.9916
77.891
77.9413
77.9588
77.9915
78.0154
77.9428
77.9694
77.9869
78.0125
78.0338
78.0044
78.0074
78.0165
78.0334
78.051
78.0176
78.0204
78.0308
78.0474
78.0656
78.3958
78.3967
78.3964
78.395
78.3905
78.3773
78.3779
78.3777
78.3765
78.3724
78.3624
78.3638
78.3635
78.3613
78.3564
78.3921
78.3938
78.3937
78.3916
78.3871
78.3887
78.3909
78.3908
78.3885
78.3833
78.3991
78.4013
78.4013
78.3992
78.3943
78.3781
78.3804
78.3805
78.3784
78.3736
78.3511
78.3533
78.3535
78.3517
78.3474
78.3071
78.3093
78.3097
78.3083
78.3046
78.2438
78.2457
78.2461
78.2451
78.2421
78.1692
78.1715
78.1724
78.1719
78.1701
78.1676
78.0369
78.04
78.0406
78.04
78.0391
78.0384
77.9737
77.9831
77.9853
77.9843
77.9828
77.9827
77.9615
77.9614
77.9618
77.9631
77.9658
77.9707
77.9755
77.9745
77.9757
77.9791
77.9845
77.9915
77.9867
77.987
77.9892
77.9932
77.9984
78.0049
77.9954
77.9959
77.9982
78.002
78.0069
78.0129
77.9999
78.0004
78.0029
78.0068
78.0118
78.0178
78.0008
78.0019
78.0048
78.009
78.0143
78.0204
77.9985
78.0002
78.0036
78.0083
78.014
78.0203
77.9927
77.9951
77.9992
78.0045
78.0108
78.0175
77.9836
77.9868
77.9917
77.9979
78.0051
78.0125
77.9711
77.9751
77.9812
77.9887
77.9971
78.0057
77.9547
77.9599
77.9675
77.9768
77.987
77.9973
77.9336
77.9403
77.9504
77.9622
77.975
77.9876
77.9054
77.9144
77.9285
77.9442
77.9609
77.9767
77.8674
77.8799
77.9009
77.9222
77.9445
77.9648
77.8081
77.8268
77.8628
77.8935
77.9251
77.9516
77.7277
77.7534
77.8156
77.8586
77.9038
77.938
77.5273
77.5738
77.7316
77.8037
77.8767
77.9229
77.3901
77.6643
77.752
77.8548
77.9111
76.0953
77.4335
77.6265
77.8207
77.8972
76.1838
77.4748
77.6239
77.8264
77.9012
76.2521
77.5066
77.6469
77.8428
77.914
76.3422
77.5482
77.6851
77.8664
77.9325
76.5449
77.6292
77.7484
77.9004
77.9567
76.7802
77.72
77.8164
77.935
77.9815
77.7594
77.9094
77.9404
77.9854
78.0123
77.876
77.9451
77.9736
78.0075
78.0315
77.988
77.9995
78.0112
78.0305
78.0487
78.0024
78.0082
78.0203
78.0388
78.0576
78.4076
78.4087
78.4085
78.407
78.4024
78.3894
78.39
78.3898
78.3886
78.3847
78.3708
78.3719
78.3715
78.3695
78.3648
78.3936
78.3947
78.3945
78.3931
78.389
78.37
78.372
78.3719
78.3697
78.3649
78.3766
78.3787
78.3788
78.3767
78.372
78.3511
78.3534
78.3535
78.3515
78.3468
78.3224
78.3245
78.3247
78.3229
78.3187
78.2767
78.2786
78.2789
78.2774
78.2738
78.2034
78.2044
78.2046
78.2035
78.2008
78.0668
78.0662
78.066
78.066
78.0655
77.8549
77.844
77.8425
77.8446
77.8485
77.8527
77.9534
77.9497
77.9503
77.9525
77.9557
77.9591
77.9545
77.9562
77.9566
77.9566
77.957
77.9584
77.9706
77.9693
77.9693
77.9707
77.9739
77.9788
77.9826
77.9812
77.9817
77.984
77.9884
77.9943
77.9938
77.9929
77.9944
77.9977
78.0024
78.0084
78.0005
78.0003
78.0021
78.0055
78.0103
78.016
78.0025
78.0028
78.0052
78.009
78.014
78.0196
78.0001
78.0012
78.0042
78.0085
78.0138
78.0196
77.994
77.996
77.9997
78.0047
78.0105
78.0168
77.9846
77.9875
77.992
77.9979
78.0047
78.0118
77.9717
77.9754
77.9811
77.9884
77.9965
78.0048
77.9546
77.9595
77.9669
77.976
77.9861
77.9963
77.9321
77.9386
77.9487
77.9606
77.9735
77.9863
77.9012
77.9104
77.9252
77.9414
77.9585
77.9748
77.8589
77.872
77.8948
77.9173
77.9409
77.962
77.79
77.8097
77.8514
77.8849
77.9193
77.9475
77.698
77.7233
77.798
77.845
77.8952
77.9321
77.4392
77.4761
77.6946
77.7771
77.8628
77.9141
77.3154
77.2802
77.6309
77.7171
77.8379
77.9001
74.7959
77.3462
77.538
77.7934
77.8817
75.5005
77.4769
77.5576
77.8031
77.8867
75.4727
77.4996
77.581
77.8192
77.9
75.5399
77.5404
77.6245
77.8447
77.9199
75.8182
77.6254
77.6953
77.8822
77.9461
75.7467
77.6629
77.7557
77.9167
77.9712
77.7221
77.8911
77.9147
77.9722
78.0037
77.8282
77.928
77.9573
77.9975
78.0238
77.9761
77.9913
78.0026
78.0233
78.0425
77.9915
78.0004
78.0125
78.0315
78.0505
78.3905
78.3919
78.3918
78.39
78.3859
78.3552
78.3572
78.3571
78.355
78.3504
78.3623
78.3645
78.3645
78.3624
78.3579
78.3369
78.3392
78.3393
78.3373
78.3328
78.3129
78.3151
78.3153
78.3135
78.3093
78.2848
78.2869
78.2871
78.2855
78.2818
78.2374
78.2393
78.2396
78.2382
78.235
78.2259
78.2277
78.2279
78.2268
78.224
63.5663
4.82982
3.91138
3.73558
3.73022
3.76912
62.1807
78.4093
78.411
78.4109
78.4089
78.4047
78.3371
78.3391
78.3391
78.3369
78.3323
78.3538
78.356
78.356
78.3539
78.3494
78.331
78.3333
78.3334
78.3313
78.3269
78.3085
78.3108
78.3109
78.3091
78.3049
78.2836
78.2858
78.286
78.2843
78.2806
78.2263
78.2283
78.2286
78.2271
78.2238
78.2547
78.2564
78.2567
78.2554
78.2526
0.00834255
0.977555
-0.187361
0.770365
0.674063
0.670769
0.623312
0.417825
0.641961
0.640789
0.639872
0.639181
0.638687
0.642024
0.64082
0.63988
0.639174
0.638674
0.64202
0.640839
0.63991
0.639209
0.638707
0.644087
0.644909
0.645659
0.646337
0.646878
0.644311
0.644946
0.645726
0.646504
0.646981
0.644505
0.645052
0.645692
0.646366
0.647087
0.644148
0.644755
0.645499
0.646314
0.64712
0.647885
0.642931
0.643666
0.644592
0.645631
0.646675
0.647642
0.641204
0.642013
0.643049
0.644297
0.645551
0.646715
0.63906
0.639776
0.640775
0.64228
0.64379
0.645175
0.635276
0.636103
0.637159
0.63934
0.641398
0.643104
0.621896
0.624858
0.628618
0.63432
0.638181
0.640592
0.550931
0.581968
0.603088
0.624864
0.633982
0.637749
0.411367
0.432239
0.540003
0.613973
0.629283
0.634738
0.395231
0.399657
0.51813
0.608793
0.625833
0.632252
0.574463
0.610045
0.624671
0.630709
0.602966
0.615969
0.625394
0.630049
0.612778
0.619238
0.625539
0.629245
0.615981
0.620268
0.624777
0.627965
0.614881
0.619064
0.622746
0.625935
0.609373
0.615564
0.619091
0.622973
0.595467
0.609173
0.612992
0.618876
0.562464
0.599877
0.603939
0.613827
0.760732
0.781487
0.381029
0.580088
0.586971
0.607226
0.967163
0.915702
0.298315
0.576286
0.576297
0.602617
0.904066
0.882253
0.301714
0.573603
0.572403
0.599464
0.916178
0.887873
0.325355
0.574077
0.573009
0.597584
0.815909
0.386522
0.569793
0.574326
0.595613
0.780941
0.432408
0.572856
0.579084
0.595687
0.319378
0.484848
0.555358
0.579275
0.594618
0.544153
0.557302
0.581052
0.590396
0.598911
0.558708
0.570393
0.584931
0.593805
0.60101
0.575583
0.580971
0.589706
0.596596
0.602857
0.641747
0.640601
0.639709
0.639042
0.638572
0.641776
0.64062
0.63972
0.639049
0.638578
0.641838
0.640681
0.639773
0.63909
0.638605
0.644035
0.64489
0.645633
0.646186
0.646754
0.644763
0.645313
0.645894
0.646493
0.647054
0.645031
0.645574
0.64617
0.646767
0.647314
0.644522
0.645205
0.645993
0.646813
0.647535
0.643226
0.644052
0.64504
0.646124
0.647102
0.647855
0.641356
0.642229
0.643311
0.644644
0.645897
0.646918
0.638829
0.6396
0.640622
0.642236
0.643857
0.645299
0.633742
0.634686
0.635857
0.638303
0.640792
0.643023
0.614583
0.618508
0.623369
0.630365
0.636021
0.640061
0.516785
0.552668
0.584985
0.612536
0.628751
0.636582
0.397232
0.412694
0.511205
0.586687
0.622321
0.632803
0.370192
0.374606
0.479602
0.585464
0.618848
0.629783
0.557547
0.595104
0.618583
0.628199
0.595231
0.607121
0.620755
0.627913
0.608246
0.613737
0.622155
0.627592
0.613534
0.616939
0.622573
0.62687
0.614521
0.617491
0.621697
0.625477
0.612135
0.615884
0.61935
0.623235
0.605537
0.612213
0.615267
0.620058
0.590917
0.606832
0.60917
0.616073
0.774402
0.76142
0.555517
0.599323
0.600646
0.611325
0.805099
0.828203
0.551056
0.599256
0.594766
0.607575
0.696325
0.780319
0.554261
0.596858
0.591177
0.604497
0.711486
0.792056
0.557592
0.597005
0.590306
0.602432
0.634849
0.727124
0.545912
0.586939
0.587516
0.599644
0.737261
0.555873
0.588094
0.589439
0.599177
0.492249
0.512883
0.567368
0.584972
0.597417
0.553986
0.562437
0.583943
0.592868
0.600897
0.570523
0.577907
0.590475
0.597583
0.603803
0.581389
0.586675
0.59555
0.601488
0.606708
0.641167
0.640085
0.639248
0.638629
0.6382
0.641118
0.640033
0.639197
0.638584
0.638168
0.641303
0.6402
0.63934
0.638699
0.638252
0.644365
0.645057
0.645695
0.646162
0.646698
0.64523
0.645763
0.646217
0.646689
0.64722
0.645319
0.645974
0.646623
0.647223
0.647726
0.644358
0.645264
0.64624
0.647193
0.647975
0.642506
0.643661
0.644953
0.646286
0.647405
0.639778
0.641112
0.642644
0.644384
0.645928
0.647138
0.635364
0.636975
0.638786
0.641172
0.643398
0.645247
0.625641
0.628394
0.631324
0.635527
0.639373
0.64249
0.593012
0.602996
0.612567
0.623868
0.632694
0.638713
0.471217
0.510035
0.559821
0.598525
0.622058
0.634134
0.376104
0.39108
0.480503
0.564165
0.611494
0.629854
0.354202
0.356668
0.444918
0.5578
0.60877
0.626479
0.540132
0.57629
0.610074
0.625087
0.585458
0.595659
0.614509
0.625517
0.601478
0.606439
0.617788
0.625979
0.608888
0.612421
0.619848
0.626063
0.611423
0.614972
0.620438
0.625438
0.610511
0.615041
0.619454
0.623938
0.60655
0.613326
0.616954
0.62158
0.59617
0.609916
0.612541
0.618374
0.82088
0.730971
0.588692
0.605382
0.60725
0.614684
0.780937
0.767319
0.575762
0.60237
0.600918
0.610831
0.666415
0.721789
0.576482
0.600347
0.596726
0.607524
0.676539
0.734399
0.579802
0.601122
0.595449
0.605298
0.602858
0.675921
0.555767
0.589098
0.591459
0.601915
0.6584
0.689307
0.573185
0.592151
0.593367
0.601232
0.531534
0.535606
0.574999
0.589131
0.599284
0.556286
0.567366
0.58668
0.594922
0.602037
0.573453
0.581598
0.593304
0.599583
0.605045
0.584958
0.59047
0.598429
0.603523
0.608037
0.640131
0.639135
0.638379
0.637837
0.637481
0.639991
0.638987
0.638229
0.637692
0.637348
0.640329
0.639303
0.638513
0.637938
0.637554
0.644549
0.645202
0.645731
0.646111
0.646623
0.645278
0.645927
0.646423
0.646827
0.647345
0.644947
0.645853
0.646711
0.647435
0.647985
0.643281
0.644557
0.645897
0.647148
0.648133
0.640347
0.642048
0.643908
0.645751
0.647256
0.635845
0.638049
0.640493
0.643091
0.64532
0.627955
0.631229
0.634719
0.63865
0.642103
0.644943
0.610919
0.617156
0.623551
0.630812
0.636961
0.641784
0.555224
0.578761
0.597301
0.615162
0.628479
0.637469
0.430948
0.468108
0.533276
0.58398
0.615443
0.632263
0.349883
0.366455
0.452777
0.545581
0.602951
0.627458
0.328209
0.331211
0.417311
0.537393
0.600384
0.62395
0.526328
0.561517
0.603117
0.622947
0.576658
0.58624
0.609605
0.624188
0.59527
0.600461
0.614697
0.62551
0.604916
0.609088
0.618414
0.626449
0.609479
0.613779
0.62049
0.626621
0.61084
0.615811
0.62102
0.625903
0.61028
0.616358
0.62032
0.624408
0.606524
0.615435
0.618027
0.622084
0.820325
0.694767
0.61977
0.614254
0.615378
0.619539
0.777315
0.733123
0.601409
0.609668
0.609173
0.615807
0.683373
0.702026
0.597411
0.609996
0.604948
0.612471
0.689448
0.714424
0.599759
0.611874
0.603446
0.610152
0.620358
0.661593
0.570184
0.598641
0.598673
0.606378
0.64861
0.666002
0.589156
0.601469
0.600027
0.60523
0.560875
0.562354
0.55832
0.586581
0.59584
0.602806
0.573564
0.578414
0.593598
0.599371
0.604246
0.580879
0.588641
0.598477
0.602802
0.60646
0.590779
0.596143
0.602637
0.606111
0.609015
0.638729
0.637831
0.63717
0.636721
0.636457
0.638544
0.637629
0.63696
0.636512
0.636255
0.63899
0.638052
0.637347
0.636856
0.636556
0.644248
0.645049
0.645641
0.645906
0.646427
0.644681
0.645558
0.646246
0.646694
0.647287
0.643678
0.644944
0.646165
0.647164
0.647929
0.640886
0.642679
0.644609
0.646394
0.647843
0.63614
0.638686
0.641493
0.644236
0.64653
0.628695
0.632428
0.636456
0.640529
0.644007
0.615676
0.621844
0.628143
0.634568
0.640021
0.588161
0.600708
0.612533
0.624307
0.633801
0.64107
0.511933
0.546711
0.578366
0.604855
0.623864
0.636499
0.393735
0.430866
0.5075
0.569953
0.609538
0.631031
0.322996
0.342051
0.428734
0.530836
0.596945
0.625885
0.301548
0.306355
0.396363
0.524343
0.594281
0.622605
0.51505
0.55154
0.598319
0.62211
0.568642
0.579507
0.606472
0.624013
0.589633
0.596178
0.613036
0.625963
0.601366
0.6069
0.618101
0.627486
0.6078
0.613333
0.621297
0.62814
0.611225
0.617033
0.622866
0.627872
0.61344
0.619343
0.623348
0.62687
0.614209
0.6205
0.622558
0.625115
0.778174
0.661914
0.639863
0.621295
0.621519
0.623349
0.746102
0.70379
0.621662
0.614219
0.615377
0.619634
0.6785
0.683673
0.617147
0.613154
0.610483
0.615917
0.683586
0.694884
0.616696
0.616247
0.608483
0.613221
0.62603
0.649902
0.583764
0.602966
0.60304
0.608937
0.642297
0.650332
0.599191
0.605362
0.603785
0.607272
0.579536
0.582951
0.573631
0.593456
0.599951
0.604544
0.585779
0.585636
0.58652
0.598118
0.602009
0.604923
0.587687
0.593776
0.601543
0.604179
0.606134
0.59535
0.59982
0.604657
0.606498
0.607814
0.636994
0.636204
0.635653
0.635316
0.635163
0.63677
0.635956
0.635391
0.635049
0.634899
0.637318
0.636482
0.635876
0.635487
0.635292
0.64327
0.64435
0.645173
0.645405
0.646004
0.643318
0.644476
0.645471
0.646103
0.646951
0.641317
0.643014
0.644767
0.646248
0.64752
0.636793
0.639324
0.642149
0.644815
0.647174
0.629419
0.633265
0.637544
0.641716
0.645384
0.617933
0.624047
0.6305
0.636811
0.642288
0.598207
0.608817
0.61924
0.629227
0.637607
0.556836
0.579445
0.598863
0.616582
0.6305
0.469834
0.511118
0.557611
0.593984
0.619622
0.635849
0.358787
0.398261
0.483677
0.557382
0.605144
0.630288
0.295507
0.317918
0.408315
0.519891
0.593474
0.625162
0.273701
0.281233
0.380576
0.517318
0.590496
0.622311
0.505362
0.545584
0.595551
0.622331
0.561239
0.575089
0.604876
0.624719
0.584511
0.593325
0.612489
0.62702
0.598192
0.605559
0.618495
0.628822
0.606357
0.613328
0.622497
0.629696
0.611627
0.618394
0.624865
0.629673
0.616225
0.622255
0.626265
0.628982
0.620846
0.62565
0.626623
0.627666
0.715705
0.626417
0.647823
0.628925
0.626308
0.626315
0.705278
0.679343
0.631678
0.621347
0.620441
0.62253
0.665402
0.666781
0.628411
0.615484
0.614894
0.618211
0.671845
0.676587
0.626513
0.617199
0.611965
0.614939
0.626914
0.639317
0.592832
0.604859
0.605924
0.610231
0.636314
0.638129
0.604078
0.606691
0.605949
0.608056
0.590552
0.594645
0.583891
0.597714
0.602504
0.605142
0.594525
0.594445
0.592804
0.601237
0.603607
0.604653
0.591378
0.593734
0.597958
0.603634
0.604616
0.604777
0.5996
0.602748
0.605782
0.605861
0.605445
0.634955
0.634281
0.633851
0.63364
0.63362
0.634696
0.633994
0.633545
0.633324
0.6333
0.635341
0.634617
0.634125
0.633853
0.633782
0.641616
0.642998
0.644131
0.644495
0.645262
0.641087
0.642556
0.643951
0.644964
0.646269
0.637634
0.639883
0.642378
0.644619
0.64671
0.630808
0.634343
0.638425
0.642408
0.646126
0.620038
0.625735
0.632074
0.638285
0.643888
0.603579
0.613023
0.622791
0.632173
0.64029
0.575812
0.592588
0.608426
0.623048
0.635074
0.522042
0.554677
0.583442
0.608331
0.627408
0.429698
0.476284
0.536772
0.583528
0.616208
0.325612
0.368678
0.462286
0.546803
0.602185
0.629366
0.267631
0.29417
0.391407
0.51254
0.591462
0.624694
0.24526
0.255909
0.368855
0.514244
0.588178
0.622359
0.496447
0.542133
0.593899
0.622743
0.554003
0.571912
0.603841
0.625291
0.579283
0.590894
0.611931
0.627564
0.594553
0.603945
0.618282
0.629222
0.603981
0.612405
0.622494
0.629883
0.610481
0.618183
0.625093
0.629692
0.616473
0.622749
0.626753
0.628875
0.624313
0.627584
0.627693
0.627659
0.64656
0.589877
0.645929
0.630922
0.627112
0.626172
0.669496
0.659067
0.634477
0.624429
0.621541
0.622296
0.651052
0.651285
0.631029
0.616509
0.615265
0.617415
0.66033
0.661351
0.630243
0.614676
0.611328
0.613505
0.626617
0.630432
0.597731
0.603532
0.605035
0.608612
0.631324
0.628403
0.605137
0.604885
0.60477
0.606282
0.597172
0.60033
0.589576
0.59858
0.602145
0.603562
0.600059
0.599639
0.596238
0.601789
0.602995
0.602645
0.595449
0.597886
0.600109
0.603732
0.603309
0.601953
0.599814
0.602315
0.603991
0.605225
0.603722
0.601786
0.63261
0.632058
0.631761
0.631694
0.631827
0.632314
0.631732
0.63141
0.631328
0.631452
0.633056
0.632454
0.632089
0.631953
0.632026
0.639221
0.640891
0.642375
0.643049
0.644064
0.63781
0.639683
0.641568
0.643189
0.645145
0.6325
0.635479
0.638916
0.642297
0.645408
0.622929
0.627762
0.633457
0.639291
0.644602
0.60823
0.616283
0.625228
0.634173
0.641969
0.586098
0.599733
0.613633
0.626945
0.637942
0.549524
0.573859
0.596227
0.616499
0.632272
0.487272
0.527265
0.567081
0.600167
0.624169
0.391698
0.444467
0.516967
0.574127
0.612869
0.293712
0.34158
0.443563
0.538517
0.599329
0.239307
0.270791
0.377747
0.50901
0.588527
0.623724
0.216123
0.230153
0.361242
0.512266
0.585797
0.621663
0.487392
0.539269
0.592007
0.622052
0.546183
0.568617
0.602075
0.624325
0.57308
0.587696
0.610098
0.626126
0.589488
0.600948
0.616267
0.627244
0.599674
0.609535
0.620221
0.627377
0.60686
0.615481
0.622628
0.626781
0.613455
0.620012
0.624026
0.625605
0.624009
0.625536
0.625037
0.62428
0.583871
0.558503
0.637778
0.626701
0.62327
0.622194
0.647709
0.641385
0.632382
0.622818
0.61844
0.618421
0.637392
0.636801
0.628101
0.6141
0.611959
0.61338
0.649975
0.648545
0.628924
0.610722
0.607833
0.609382
0.625026
0.622742
0.599531
0.600464
0.601771
0.604788
0.626751
0.620501
0.603944
0.601433
0.601561
0.602696
0.601004
0.602323
0.592181
0.597364
0.599901
0.600446
0.603182
0.602104
0.597551
0.60058
0.600824
0.599382
0.598415
0.600312
0.600673
0.602352
0.600723
0.598086
0.601675
0.603904
0.603966
0.60342
0.600502
0.597273
0.629949
0.629525
0.629371
0.629463
0.62977
0.629614
0.629157
0.628975
0.629045
0.629337
0.630454
0.629982
0.629758
0.629772
0.63001
0.635956
0.637881
0.639717
0.640847
0.642227
0.633445
0.63571
0.638196
0.640649
0.643384
0.625966
0.629737
0.634296
0.63914
0.643463
0.613338
0.619661
0.627257
0.635369
0.642441
0.594389
0.605126
0.617136
0.629337
0.639375
0.566068
0.584586
0.603349
0.621214
0.634815
0.522312
0.553596
0.583244
0.609837
0.628537
0.452897
0.499861
0.550794
0.592512
0.619899
0.355602
0.415004
0.49872
0.56625
0.608343
0.2626
0.316386
0.427493
0.532618
0.59508
0.210382
0.24761
0.366607
0.506894
0.584833
0.1861
0.20361
0.356358
0.509543
0.582544
0.619224
0.477404
0.535515
0.588823
0.619247
0.536969
0.564051
0.598581
0.620914
0.565083
0.582778
0.606138
0.621994
0.582235
0.595797
0.611795
0.622416
0.592791
0.604126
0.61523
0.621931
0.600304
0.609884
0.617244
0.620891
0.607034
0.613901
0.618127
0.61931
0.619945
0.619602
0.619002
0.617849
0.544114
0.535885
0.627068
0.617519
0.615779
0.61503
0.637013
0.627165
0.627096
0.617232
0.612018
0.611577
0.625815
0.623905
0.621774
0.608622
0.605739
0.606739
0.641656
0.637892
0.624289
0.605632
0.602099
0.60315
0.622696
0.616093
0.599041
0.596257
0.596727
0.599271
0.622551
0.614053
0.601426
0.597067
0.596887
0.597764
0.602913
0.602147
0.592703
0.594757
0.596236
0.596186
0.604653
0.602662
0.597291
0.598068
0.597434
0.595195
0.60022
0.601267
0.599949
0.599808
0.597165
0.593512
0.602918
0.604444
0.602897
0.600666
0.596543
0.592299
0.626952
0.62666
0.626658
0.626923
0.627423
0.626571
0.626246
0.626211
0.626448
0.626927
0.627513
0.627179
0.627106
0.627286
0.627707
0.631594
0.633763
0.635954
0.637634
0.639462
0.627791
0.630481
0.633643
0.637115
0.640741
0.617983
0.622601
0.628407
0.634962
0.640633
0.602229
0.610101
0.619821
0.630514
0.639329
0.578771
0.592423
0.607941
0.623722
0.63565
0.544894
0.568144
0.592188
0.614878
0.630556
0.494536
0.531904
0.56976
0.602629
0.623804
0.419295
0.473715
0.535141
0.584508
0.614745
0.321117
0.387766
0.482161
0.558526
0.60297
0.231898
0.292651
0.413643
0.527051
0.589903
0.180714
0.22442
0.357214
0.504126
0.58
0.154981
0.17583
0.351506
0.505532
0.577761
0.465907
0.530084
0.583702
0.613856
0.525785
0.557535
0.592853
0.614784
0.554798
0.575641
0.599734
0.615096
0.572458
0.588206
0.604755
0.614849
0.583214
0.59612
0.607618
0.613826
0.590944
0.601577
0.609232
0.612445
0.597728
0.60498
0.609595
0.610562
0.612844
0.610791
0.610367
0.609072
0.52846
0.521297
0.616154
0.606148
0.605965
0.60568
0.628925
0.615312
0.61925
0.608785
0.603357
0.602715
0.617129
0.612952
0.613699
0.601161
0.597737
0.598437
0.635279
0.629111
0.61812
0.599554
0.595083
0.595658
0.620223
0.610537
0.597165
0.591494
0.590788
0.592802
0.618982
0.608962
0.598377
0.592455
0.591526
0.592109
0.603752
0.60099
0.592052
0.591493
0.591814
0.591295
0.605162
0.602177
0.596142
0.594884
0.593362
0.59053
0.60132
0.601319
0.598483
0.596616
0.593089
0.588634
0.603782
0.604358
0.601262
0.59744
0.592287
0.587283
0.623578
0.62342
0.623577
0.624028
0.62474
0.623142
0.622953
0.623073
0.623489
0.624174
0.624192
0.624003
0.624089
0.624448
0.625069
0.625873
0.62828
0.630832
0.633133
0.635453
0.620678
0.623802
0.627684
0.632314
0.636895
0.608521
0.613961
0.62111
0.629547
0.636539
0.589535
0.599021
0.61113
0.624542
0.634791
0.561937
0.578404
0.597645
0.617098
0.630555
0.52282
0.550638
0.580201
0.607589
0.625022
0.466519
0.509999
0.556225
0.594248
0.617822
0.38654
0.4487
0.52045
0.575328
0.60834
0.287925
0.362544
0.467683
0.549502
0.596322
0.201381
0.270065
0.402
0.519924
0.583333
0.150371
0.200963
0.349656
0.498361
0.573502
0.122639
0.146521
0.344969
0.499347
0.571056
0.45252
0.522491
0.576392
0.512392
0.548799
0.584822
0.606113
0.542121
0.566206
0.591001
0.605776
0.560243
0.578299
0.595441
0.605027
0.571231
0.585839
0.597843
0.603661
0.579247
0.59107
0.599195
0.602147
0.586262
0.594057
0.599222
0.600188
0.603386
0.600167
0.600053
0.598868
0.523832
0.511542
0.605514
0.594633
0.595087
0.595258
0.619555
0.603765
0.60987
0.598989
0.59362
0.592893
0.610965
0.603718
0.605162
0.592971
0.589079
0.589459
0.630079
0.621652
0.611462
0.593161
0.5877
0.587723
0.617998
0.6061
0.594673
0.586733
0.584694
0.58603
0.616298
0.605214
0.595404
0.58809
0.586096
0.586242
0.604335
0.599757
0.590979
0.588158
0.587185
0.58621
0.605456
0.601455
0.594747
0.5916
0.589091
0.585782
0.602285
0.601116
0.596857
0.593304
0.58893
0.583817
0.604728
0.604196
0.59961
0.594252
0.588176
0.582634
0.619797
0.619767
0.620084
0.620728
0.621666
0.6193
0.619243
0.619519
0.62012
0.621021
0.620457
0.620411
0.62066
0.621204
0.622038
0.618484
0.62114
0.624077
0.627061
0.629896
0.611873
0.615432
0.620085
0.625986
0.631526
0.597332
0.60362
0.61227
0.622665
0.63077
0.575389
0.58642
0.601058
0.617226
0.628626
0.543875
0.5631
0.586144
0.609253
0.623911
0.499898
0.532163
0.567513
0.598867
0.617979
0.438397
0.488251
0.542442
0.584711
0.610328
0.354626
0.424881
0.505972
0.565219
0.600429
0.255829
0.338982
0.454043
0.539487
0.588142
0.17121
0.247925
0.39144
0.511016
0.575096
0.119314
0.176848
0.341735
0.490357
0.565136
0.0889979
0.115518
0.335646
0.490922
0.562327
0.437111
0.512677
0.567001
0.496879
0.537933
0.574744
0.527285
0.554723
0.58035
0.594616
0.545982
0.566478
0.584395
0.593634
0.557382
0.573821
0.586554
0.592198
0.565868
0.579015
0.587863
0.590809
0.573445
0.581907
0.587823
0.589054
0.592494
0.58862
0.588907
0.588123
0.522423
0.503995
0.595289
0.583379
0.58402
0.584666
0.606913
0.591346
0.599739
0.588638
0.583727
0.582998
0.606157
0.595787
0.59695
0.584931
0.580656
0.58063
0.625283
0.615019
0.604929
0.587026
0.580677
0.580033
0.616325
0.602825