/*--------------------------------*- C++ -*----------------------------------*\
| =========                 |                                                 |
| \\      /  F ield         | OpenFOAM: The Open Source CFD Toolbox           |
|  \\    /   O peration     | Version:  2.3.1                                 |
|   \\  /    A nd           | Web:      www.OpenFOAM.org                      |
|    \\/     M anipulation  |                                                 |
\*---------------------------------------------------------------------------*/
FoamFile
{
    version     2.0;
    format      ascii;
    class       surfaceScalarField;
    location    "600";
    object      phi;
}
// * * * * * * * * * * * * * * * * * * * * * * * * * * * * * * * * * * * * * //

dimensions      [0 3 -1 0 0 0 0];

internalField   nonuniform List<scalar> 
18372
(
-0.000289553
-0.00136607
0.00107625
4.61803e-06
-0.00137007
0.0010759
0.000299359
-0.00136985
0.00107511
0.000590904
-0.00136585
0.00107431
-0.00135599
0.00107324
-0.000385016
-0.00228161
0.000539865
7.12067e-06
-0.00228998
0.000527781
0.000399725
-0.00228977
0.000527313
0.000777546
-0.00228154
0.000537863
-0.00227616
0.000544619
-0.000373193
-0.00222628
-0.000421377
8.17882e-06
-0.00223133
-0.000440022
0.000389763
-0.00223163
-0.000439723
0.000757906
-0.00222734
-0.000422344
-0.00223099
-0.000415056
-0.000333577
-0.000972922
-0.0015914
7.98014e-06
-0.000965021
-0.00160787
0.000350077
-0.000968335
-0.00160539
0.000690935
-0.000981507
-0.00158669
-0.000997204
-0.00158094
-0.00034245
8.67551e-05
-0.00140054
5.53836e-06
8.36327e-05
-0.00139664
0.000354192
7.85891e-05
-0.00139558
0.000697821
7.26496e-05
-0.00139779
6.20776e-05
-0.00140551
-0.000324723
0.00124756
-0.0014876
-5.07424e-07
0.00124753
-0.00148811
0.000324207
0.00124175
-0.00148787
0.000653073
0.0012309
-0.00148712
0.000989908
0.00121582
-0.00149058
0.00119578
-0.000328014
0.00233365
-0.00140763
-5.87958e-06
0.00233485
-0.00140946
0.00031664
0.00232823
-0.001409
0.000639693
0.00231432
-0.00140647
0.000971422
0.00229295
-0.00140886
0.0022632
-0.00141695
-0.000325419
0.0033806
-0.00135992
-1.18957e-05
0.00338324
-0.00136191
0.000301766
0.00337589
-0.00136132
0.000615438
0.00335893
-0.00135828
0.000938053
0.0033309
-0.00136056
0.00329069
-0.00136851
-0.000320193
0.00438578
-0.00130674
-1.86943e-05
0.00439049
-0.00130875
0.000282597
0.0043826
-0.001308
0.000583767
0.00436231
-0.00130454
0.000893684
0.0043275
-0.00130652
0.00427703
-0.00131427
-0.000313274
0.00532067
-0.00122264
-2.60419e-05
0.00532727
-0.00122401
0.00026056
0.00531877
-0.00122277
0.000546513
0.00529519
-0.00121883
0.000840436
0.00525395
-0.00122038
0.00519411
-0.00122775
-0.000304218
0.00615741
-0.00110777
-3.42584e-05
0.00616533
-0.00110802
0.000234552
0.00615608
-0.00110612
0.000502222
0.00612942
-0.0011019
0.000776724
0.00608297
-0.00110352
0.00601629
-0.00111146
-0.000295003
0.00670208
-0.000798009
-4.31366e-05
0.00670944
-0.000795981
0.00020711
0.00669826
-0.000792424
0.000455443
0.00666794
-0.000786852
0.000709377
0.00661607
-0.000787032
0.00654264
-0.000793183
-0.000286574
0.0069249
-0.000455584
-5.44298e-05
0.00693255
-0.000455251
0.000175703
0.00691941
-0.000451284
0.000403
0.00688485
-0.000444202
0.000634185
0.00682715
-0.000442262
0.0067473
-0.000446405
-0.000276741
0.00686902
-0.000153462
-6.74007e-05
0.0068762
-0.000152989
0.00013974
0.00686081
-0.000148541
0.000343355
0.00682225
-0.000141017
0.00054935
0.0067596
-0.000138443
0.00667494
-0.000142217
-0.000266334
0.00661741
6.81025e-05
-8.26237e-05
0.00662285
6.96401e-05
9.89111e-05
0.00660505
7.42269e-05
0.000276799
0.00656337
8.0988e-05
0.000456132
0.0064975
8.27665e-05
0.00641036
7.80534e-05
-0.000257931
0.00625202
0.000208677
-0.00010119
0.00625463
0.000211475
5.36891e-05
0.00623419
0.000215974
0.000205483
0.00619005
0.000221532
0.000358453
0.00612244
0.000222083
0.00603477
0.000216142
-0.000253226
0.00583827
0.000283733
-0.000123557
0.00583712
0.000287843
4.83417e-06
0.00581344
0.000292365
0.000131003
0.005767
0.00029688
0.00025867
0.00569844
0.000296339
0.00561115
0.000289406
-0.000253681
0.0054234
0.000310842
-0.000150329
0.00541742
0.000316354
-4.77996e-05
0.00538958
0.00032133
5.36652e-05
0.00534028
0.000325258
0.000157668
0.0052704
0.000324037
0.00518341
0.000316638
-0.000260859
0.00503851
0.000306135
-0.000183001
0.00502654
0.000313016
-0.000105363
0.00499338
0.000318561
-2.72366e-05
0.00493988
0.000322268
5.48942e-05
0.00486751
0.000320755
0.00477976
0.000313401
-0.000276332
0.00470205
0.000282663
-0.000223394
0.00468294
0.000290662
-0.000169652
0.00464295
0.000296688
-0.000113523
0.00458343
0.000300328
-5.15901e-05
0.0045066
0.000298977
0.00441595
0.000292066
-0.000301619
0.00442306
0.00025058
-0.000273621
0.0043956
0.000259342
-0.000243238
0.0043469
0.000265667
-0.000207962
0.00427905
0.000269097
-0.00016446
0.004195
0.000268104
0.00409861
0.000262163
-0.000338302
0.00420364
0.00021786
-0.000336143
0.00416651
0.000226935
-0.000329236
0.00410682
0.000233171
-0.000314183
0.00402785
0.000236148
-0.000287634
0.00393333
0.000235122
0.00382768
0.000230279
-0.000388116
0.00404077
0.000190968
-0.000413829
0.0039925
0.000199719
-0.00043131
0.00391915
0.000205157
-0.000436365
0.00382578
0.000207125
-0.000425688
0.00371707
0.000205577
0.00359841
0.000201173
-0.000453036
0.00392731
0.000175648
-0.000510016
0.00386639
0.000183089
-0.000553673
0.00377628
0.000186522
-0.000579214
0.00366488
0.000186443
-0.000583493
0.00353792
0.000183436
0.00340235
0.000178688
-0.000535273
0.00385233
0.000177552
-0.000628525
0.00377744
0.000182208
-0.000701036
0.00366713
0.000181659
-0.000747835
0.00353387
0.000177812
-0.0007661
0.00338445
0.000171729
0.00322828
0.000165334
-0.000637348
0.000203644
-0.000773853
0.00371076
0.000203178
-0.00087871
0.00357672
0.000195276
-0.000947703
0.00341802
0.000184843
-0.000978559
0.00324229
0.000173019
0.00306257
0.000162899
-0.000950687
0.00364705
0.000252774
-0.00109201
0.0034859
0.000232143
-0.00118402
0.00329909
0.000210942
-0.00122526
0.00309419
0.000189345
0.0028895
0.000172514
-0.00116516
0.00355786
0.000343494
-0.00134716
0.00336802
0.000299878
-0.00146212
0.00315318
0.000260866
-0.00150985
0.002919
0.000222915
0.00269095
0.000194964
-0.00141972
0.00341126
0.000482176
-0.00164636
0.00319312
0.000401543
-0.00178335
0.00295376
0.000336411
-0.00183204
0.00269398
0.000273711
0.00244821
0.000229449
-0.00172416
0.00314261
0.000709262
-0.00199618
0.00290967
0.000555471
-0.00215007
0.00266098
0.000446678
-0.00218993
0.00238992
0.00034391
0.00214022
0.000275468
-0.00205917
0.00272492
0.00098736
-0.00237733
0.00249181
0.000736012
-0.00254399
0.0022515
0.000576142
-0.00256635
0.00198933
0.000422956
0.00175438
0.000325807
-0.00244751
0.00199423
0.00146928
-0.00279542
0.00184584
0.000993876
-0.00295676
0.00166836
0.000744477
-0.00294487
0.0014644
0.000513029
0.00127784
0.00037774
-0.00278761
0.00110129
0.00178703
-0.00316409
0.00105533
0.00116699
-0.00331905
0.000962235
0.000861086
-0.00327366
0.000847644
0.000571366
0.000734253
0.000407504
-0.00309997
3.04742e-05
0.00192707
-0.00344749
0.000150559
0.00125229
-0.00357977
0.000182427
0.000912082
-0.00350517
0.000182743
0.000590306
0.000162084
0.000408086
-0.00338551
-0.00107435
0.00185938
-0.00366908
-0.000768278
0.00120241
-0.00375648
-0.00058435
0.000854185
-0.00365319
-0.000454328
0.000533779
-0.000372098
0.000349114
-0.0033511
-0.0018464
0.00154921
-0.00366225
-0.00144371
0.000986589
-0.00376084
-0.00115898
0.000673226
-0.00367237
-0.000934087
0.000391287
-0.000772932
0.000224922
-0.00311977
-0.00217609
0.00111744
-0.00349974
-0.0017767
0.000712954
-0.00365222
-0.00146358
0.000457079
-0.00361154
-0.00119734
0.000222577
-0.000994546
7.85341e-05
-0.00278074
-0.00193312
0.000537889
-0.00323368
-0.00165209
0.00032833
-0.00345931
-0.00141089
0.000172942
-0.0034938
-0.00118884
2.59859e-05
-0.00101075
-7.84844e-05
-0.002445
-0.00138409
0.000231382
-0.00295792
-0.00122657
8.74057e-05
-0.00324786
-0.00108041
-4.05503e-05
-0.00333524
-0.00094457
-0.000156884
-0.000839488
-0.000234774
-0.00196167
-0.000589677
-7.49002e-05
-0.00248336
-0.000552309
-0.000152578
-0.00280137
-0.000521497
-0.000240897
-0.00292996
-0.000489522
-0.000326458
-0.000464308
-0.000393505
-0.000886955
-0.000130308
-0.0012573
-0.000181969
-0.00152224
-0.000256555
-0.00167903
-0.000332729
-0.000399744
-0.00037272
-0.00126053
0.00196264
5.98891e-06
-0.00126722
0.0019644
0.000385853
-0.0012683
0.00196355
0.000762766
-0.00126361
0.00196101
-0.00125691
0.00195533
-0.000419658
-0.00201226
0.000874704
9.0469e-06
-0.00202504
0.000856897
0.00043868
-0.00202623
0.000855613
0.000858307
-0.00201601
0.000870632
-0.00201152
0.00087656
-0.000371921
-0.00188558
-0.000925326
1.0545e-05
-0.00189372
-0.000953802
0.000393665
-0.00189501
-0.00095406
0.000773431
-0.00188962
-0.000928495
-0.00189237
-0.000920388
-0.000288755
-0.000678655
-0.00310132
8.61197e-06
-0.00068157
-0.00311739
0.000307268
-0.000684819
-0.00311424
0.000614033
-0.000688113
-0.00309496
-0.000695601
-0.00309467
-0.000301315
0.000396932
-0.00278056
4.74264e-06
0.000394417
-0.00277869
0.000311889
0.000389231
-0.00277677
0.000619713
0.000381741
-0.00277546
0.000370556
-0.00278611
-0.000296013
0.00143395
-0.00282153
-9.13563e-07
0.00143316
-0.00282195
0.000295058
0.00142666
-0.00282128
0.000594668
0.0014147
-0.00281968
0.00139757
-0.00282723
-0.000298418
0.00245572
-0.00272353
-6.95517e-06
0.00245626
-0.00272401
0.000285115
0.00244883
-0.00272324
0.000581098
0.00243353
-0.00272129
0.000887665
0.00240973
-0.00272758
0.00237705
-0.00029788
0.00346959
-0.00266201
-1.3632e-05
0.0034723
-0.0026622
0.000270853
0.00346426
-0.00266123
0.000559803
0.0034454
-0.0026591
0.000859655
0.00341412
-0.0026648
0.00336941
-0.00267924
-0.000295946
0.00448388
-0.00260067
-2.11281e-05
0.00448929
-0.00260057
0.000253446
0.00448096
-0.00259928
0.000532391
0.00445863
-0.00259672
0.000821855
0.00441982
-0.00260169
0.0043631
-0.00261536
-0.000292426
0.00549414
-0.00250193
-2.9012e-05
0.00550249
-0.00250062
0.000233535
0.00549403
-0.00249839
0.000499841
0.00546838
-0.00249489
0.000775799
0.00542224
-0.00249876
0.00535415
-0.00251123
-0.000287351
0.00650259
-0.00237193
-3.79796e-05
0.00651325
-0.00236815
0.000209756
0.00650469
-0.00236451
0.000460413
0.00647624
-0.00236042
0.000719465
0.00642415
-0.00236447
0.0063473
-0.00237786
-0.000285171
0.00726872
-0.00180925
-4.76812e-05
0.00727893
-0.00179915
0.000187288
0.00726886
-0.00179156
0.000424123
0.00723705
-0.00178449
0.000668302
0.00717871
-0.00178577
0.00709273
-0.00179535
-0.000290503
0.00778003
-0.00120051
-6.24056e-05
0.00779237
-0.00119679
0.000162356
0.00778144
-0.00118863
0.000386841
0.00774551
-0.00117714
0.000616322
0.00767979
-0.00117282
0.00758412
-0.00117712
-0.000296812
0.00808098
-0.000676237
-7.9577e-05
0.00809417
-0.000672017
0.000134047
0.00808149
-0.000662217
0.00034593
0.008041
-0.000648399
0.000560948
0.00796858
-0.00064226
0.00786524
-0.000646149
-0.000304064
0.0082282
-0.000287987
-9.93976e-05
0.0082404
-0.000281254
0.000101784
0.00822505
-0.000270507
0.000300712
0.00817966
-0.000256596
0.000501697
0.00810185
-0.000251486
0.00799378
-0.000257972
-0.000312579
0.00826131
-1.89378e-05
-0.000121976
0.0082707
-9.43451e-06
6.56738e-05
0.00825169
1.67805e-06
0.000250955
0.00820112
1.47885e-05
0.000437768
0.0081187
1.84246e-05
0.00800769
9.31385e-06
-0.0003223
0.00821669
0.000150071
-0.000148025
0.00822163
0.000162643
2.39617e-05
0.00819768
0.000174391
0.000193748
0.00814163
0.000186586
0.000364928
0.00805483
0.000189031
0.00794133
0.000177986
-0.000334445
0.00812771
0.000239243
-0.000178144
0.00812663
0.000255056
-2.35828e-05
0.00809623
0.000268221
0.000129349
0.00803394
0.000280013
0.000284142
0.00794216
0.000281907
0.00782592
0.000269882
-0.000350668
0.00801919
0.000273105
-0.000213692
0.00801035
0.000292321
-7.80283e-05
0.00797191
0.000307216
5.7202e-05
0.00790227
0.000318707
0.000195553
0.00780429
0.000320273
0.00768421
0.000308415
-0.000372699
0.0079093
0.000271461
-0.000256308
0.007891
0.000293618
-0.000140667
0.0078428
0.000310158
-2.36559e-05
0.00776407
0.000321517
9.83412e-05
0.00765852
0.000322756
0.00753248
0.000311935
-0.000402127
0.00781035
0.000250648
-0.000307777
0.00778089
0.000275099
-0.000213067
0.00772091
0.000292848
-0.000114957
0.007631
0.000304061
-9.17234e-06
0.00751574
0.000305092
0.00738147
0.000295345
-0.000440635
0.0077293
0.000224584
-0.000370224
0.00768694
0.000250476
-0.000297591
0.00761289
0.000268561
-0.000218788
0.00750931
0.000279035
-0.000129255
0.00738156
0.00027977
0.0072363
0.0002711
-0.00049013
0.00766805
0.000205685
-0.000446247
0.00761112
0.000231653
-0.000397245
0.00752053
0.000248513
-0.000338301
0.00740051
0.000256975
-0.000264726
0.00725709
0.000256479
0.00709737
0.000248525
-0.000552835
0.00762359
0.000205954
-0.000539071
0.00755072
0.000229732
-0.000515787
0.00744106
0.000242703
-0.000477458
0.00730175
0.000246876
-0.000419403
0.00713925
0.000243218
0.00696151
0.00023454
-0.000631309
0.0075877
0.000237887
-0.000652646
0.00749821
0.000256051
-0.000657813
0.00736716
0.000260729
-0.000641024
0.00720594
0.000256839
-0.000597796
0.00702107
0.000246676
0.00682206
0.000234681
-0.000728669
0.00754576
0.000317228
-0.000792072
0.00744047
0.000324321
-0.000829101
0.00728631
0.000313157
-0.000834782
0.00710144
0.000295017
-0.000805096
0.00689161
0.000272796
0.006669
0.000253313
-0.000848198
0.000463078
-0.000963245
0.00735776
0.000450531
-0.00103619
0.00718022
0.000411175
-0.00106511
0.0069719
0.000369412
-0.00104675
0.006736
0.000326593
0.00648927
0.000293521
-0.00117522
0.00721908
0.000662762
-0.00128812
0.00702134
0.000571659
-0.00134001
0.00679404
0.000490607
-0.00132879
0.00653446
0.00041324
0.00626655
0.000357548
-0.00143351
0.00698608
0.00098004
-0.00159074
0.00677669
0.000803433
-0.00166479
0.00654061
0.000663894
-0.00165487
0.00626457
0.00053368
0.00598301
0.000444521
-0.00175939
0.00658056
0.00149517
-0.00196029
0.0063873
0.00114575
-0.00204998
0.00616837
0.000908606
-0.00202994
0.00589605
0.000692383
0.00561748
0.000553601
-0.00213197
0.00597117
0.00212649
-0.00238087
0.0058268
0.00154542
-0.00248385
0.00565311
0.00119439
-0.00244471
0.00541083
0.000869038
0.00515651
0.000671226
-0.00261815
0.00491072
0.00327743
-0.00288795
0.00497425
0.00211623
-0.00297854
0.0049228
0.00156538
-0.00289796
0.0047762
0.00106708
0.00458429
0.000791167
-0.00307057
0.0036866
0.00397444
-0.00338119
0.00396706
0.00248479
-0.00346633
0.0040495
0.00181952
-0.00334688
0.00402832
0.0011998
0.0039213
0.000868032
-0.00353249
0.00241072
0.00425654
-0.00385118
0.00288661
0.00265144
-0.00391939
0.00310641
0.00192338
-0.00376316
0.00321658
0.00124582
0.00320452
0.000883083
-0.00407326
0.00102212
0.00419974
-0.004328
0.00173396
0.0026098
-0.00434552
0.00211537
0.00186275
-0.0041446
0.00236289
0.00118656
0.00245436
0.000819721
-0.00458072
-0.000367812
0.00370387
-0.00474074
0.000570709
0.00230986
-0.00470261
0.00113177
0.00161869
-0.00446682
0.00150884
0.00100954
0.00169906
0.000672472
-0.00491061
-0.00133486
0.00281329
-0.00504167
-0.000403214
0.00181794
-0.00495916
0.000249736
0.00125661
-0.00469882
0.00071816
0.000752917
0.000978333
0.000465667
-0.00482399
-0.00145589
0.00133823
-0.00504392
-0.00081745
0.000962494
-0.00500077
-0.000297335
0.000676869
-0.00475818
0.000118448
0.000383106
0.000393217
0.000178484
-0.0045857
-0.00122643
0.000686219
-0.00487501
-0.000848712
0.000407979
-0.00488927
-0.000512772
0.000189145
-0.00470051
-0.000220045
-7.14449e-06
5.71234e-06
-0.000142673
-0.00400986
-0.000649234
4.86839e-05
-0.00438588
-0.000510476
-0.000114801
-0.00450945
-0.000378717
-0.000251376
-0.00442746
-0.000252168
-0.000376323
-0.000148832
-0.000461957
-0.0025244
-8.57957e-05
-0.00296992
-0.000246919
-0.00320549
-0.000399709
-0.00326282
-0.000527563
-0.000623879
-0.000395712
-0.000846386
0.00241279
7.72549e-06
-0.000856879
0.00241784
0.00041275
-0.00085971
0.00241823
0.000812629
-0.000853942
0.00241507
-0.000845032
0.00240191
-0.000422101
-0.00146611
0.00106844
1.28899e-05
-0.00148577
0.0010508
0.000449009
-0.00148916
0.00104894
0.000878014
-0.00147592
0.00106361
-0.00146598
0.00106505
-0.000348401
-0.00147744
-0.00127739
1.6427e-05
-0.00149337
-0.00131104
0.000381655
-0.00149615
-0.0013123
0.0007471
-0.00148623
-0.00128363
-0.00148258
-0.00127536
-0.000220068
-0.000431636
-0.00438846
9.59317e-06
-0.000438763
-0.00440165
0.00024085
-0.000442532
-0.00439911
0.000486312
-0.000443078
-0.00438358
-0.000446252
-0.00438726
-0.000235326
0.000497873
-0.00395458
4.2512e-06
0.000492545
-0.00394957
0.000245067
0.000487371
-0.00394749
0.00049308
0.000482258
-0.00394881
0.000474608
-0.00396235
-0.000236884
0.00138353
-0.00394828
-1.5405e-06
0.00138076
-0.00394551
0.000234698
0.00137439
-0.00394453
0.000478421
0.0013643
-0.00394545
0.00134916
-0.00395571
-0.000242009
0.00226538
-0.00384537
-7.39733e-06
0.00226517
-0.00384303
0.000227711
0.00225807
-0.00384203
0.000469229
0.00224387
-0.00384238
0.00222077
-0.00385101
-0.000242946
0.00315124
-0.0037831
-1.37203e-05
0.00315463
-0.00378088
0.000215518
0.00314728
-0.00377968
0.000450829
0.00312887
-0.00377941
0.000696434
0.00309716
-0.00378679
0.00305091
-0.00024146
0.0040591
-0.00373578
-2.06924e-05
0.00406669
-0.0037334
0.000199481
0.00405957
-0.00373175
0.000424983
0.00403731
-0.00373066
0.000660091
0.00399715
-0.00373678
0.00393745
-0.000236698
0.00500329
-0.003663
-2.74178e-05
0.0050159
-0.00365911
0.000180438
0.0050095
-0.00365618
0.000392688
0.00498379
-0.00365363
0.000613637
0.00493543
-0.003658
0.00486299
-0.00367053
-0.00022834
0.00603346
-0.00360415
-3.52317e-05
0.00605037
-0.00359573
0.000155372
0.00604486
-0.00359047
0.000349286
0.00601658
-0.00358712
0.000550634
0.00596169
-0.00359208
0.00587956
-0.00360584
-0.000221778
0.00671712
-0.00268623
-4.27295e-05
0.00673271
-0.00266054
0.000132082
0.00672594
-0.00264746
0.000309669
0.00669457
-0.00264007
0.000494442
0.00663287
-0.00264172
0.0065398
-0.00264924
-0.000235006
0.00709299
-0.00175684
-6.29649e-05
0.0071166
-0.00175272
0.000102591
0.00711198
-0.00174022
0.000266345
0.00707665
-0.00172297
0.000432951
0.00700526
-0.00171182
0.00689861
-0.00170692
-0.00024674
0.00726812
-0.00101927
-8.59777e-05
0.00729824
-0.00101442
6.73856e-05
0.00729519
-0.000998796
0.000216149
0.00725621
-0.000976725
0.000364573
0.0071763
-0.000961724
0.00705827
-0.000955671
-0.000258443
0.00735001
-0.000523575
-0.000112199
0.00738388
-0.000513132
2.66107e-05
0.00738178
-0.000495898
0.00016
0.00734096
-0.000474737
0.000291581
0.00725568
-0.000462453
0.00712998
-0.000461609
-0.00027244
0.00739844
-0.000205538
-0.000142016
0.00743399
-0.00018997
-1.80304e-05
0.00743144
-0.000171972
0.000101329
0.00738897
-0.000152575
0.000218626
0.00730007
-0.000143256
0.00716986
-0.000147834
-0.000289989
0.00743861
-1.36876e-05
-0.000174258
0.00747313
7.7641e-06
-6.42333e-05
0.00746829
2.75205e-05
4.26495e-05
0.00742273
4.59338e-05
0.000148647
0.00733022
5.28838e-05
0.00719698
4.38727e-05
-0.000310601
0.00747627
9.22116e-05
-0.000209768
0.00750709
0.000120262
-0.000114207
0.0074982
0.000142752
-2.02729e-05
0.00744785
0.000160962
7.45546e-05
0.00735102
0.000166279
0.00721407
0.000154583
-0.000335226
0.00751854
0.000136707
-0.000250534
0.00754376
0.000170962
-0.000170187
0.00752869
0.000196373
-8.96694e-05
0.00747138
0.000214665
-5.75741e-06
0.00736858
0.000218801
0.00722686
0.0002056
-0.000365952
0.00757093
0.000141955
-0.000298693
0.00758873
0.000181389
-0.000234402
0.007565
0.000209563
-0.000167587
0.00749803
0.000228049
-9.45262e-05
0.00738671
0.000231565
0.00723835
0.000218206
-0.000404488
0.00763784
0.000126067
-0.000356386
0.00764607
0.000169661
-0.000309199
0.00761058
0.000200074
-0.000256469
0.00753075
0.000218606
-0.000194127
0.00740769
0.000221769
0.00724959
0.000209325
-0.000452697
0.00772304
0.000104357
-0.000426069
0.00771895
0.000150969
-0.000397317
0.00766783
0.000182565
-0.000359198
0.00757118
0.000200489
-0.000307418
0.00743244
0.00020324
0.0072608
0.000192162
-0.000512821
0.0078297
9.08739e-05
-0.000510734
0.00780968
0.000138834
-0.000502085
0.00773796
0.000169729
-0.000479168
0.00761963
0.000185612
-0.000437747
0.00746037
0.000187131
0.00727075
0.000177266
-0.000587662
0.00796004
9.99641e-05
-0.000614181
0.00791942
0.000146508
-0.000627668
0.00782071
0.000173442
-0.000620542
0.00767478
0.000184599
-0.000588968
0.00748916
0.00018285
0.0072765
0.000172944
-0.000680638
0.00811453
0.000147553
-0.000741234
0.00804761
0.00018846
-0.000779248
0.00791364
0.000205815
-0.000788378
0.00773315
0.000207601
-0.000765578
0.00751433
0.000198705
0.00727314
0.000185959
-0.000796328
0.00828998
0.000255791
-0.000898637
0.00819049
0.000283753
-0.000963737
0.00801061
0.00028129
-0.000989102
0.00778788
0.000265646
-0.000972908
0.00752828
0.000242654
0.00725323
0.000222014
-0.000939939
0.00847715
0.000453281
-0.00109467
0.00833987
0.000455878
-0.00118926
0.00810041
0.000415962
-0.00123003
0.00782788
0.000370178
-0.00121665
0.00751965
0.000321842
0.00720648
0.000285431
-0.00112069
0.000797499
-0.00134489
0.00847574
0.000751086
-0.00146935
0.00815985
0.000636684
-0.0015219
0.00783314
0.000537907
-0.001504
0.00747051
0.000444469
0.00711831
0.000379839
-0.00165942
0.00857223
0.0012014
-0.00181258
0.00815903
0.000957413
-0.00187173
0.00777853
0.000777652
-0.00183916
0.00735906
0.000612556
0.00697166
0.00050447
-0.00209368
0.00852759
0.00200154
-0.00225614
0.0080133
0.00145394
-0.00230152
0.00760526
0.00112725
-0.00223233
0.0071461
0.000836169
0.00674103
0.000659925
-0.00260401
0.00830956
0.00299976
-0.00276938
0.00769154
0.00203255
-0.00279122
0.00728307
0.00153842
-0.00267011
0.00680928
0.00108475
0.00640995
0.000826975
-0.00343276
0.00712395
0.00547913
-0.00347923
0.00686994
0.00298429
-0.00339204
0.00662996
0.0021313
-0.00316742
0.0062742
0.00137754
0.00594295
0.00100255
-0.00407552
0.00565819
0.00675844
-0.00410206
0.00582737
0.0035539
-0.00395073
0.0057793
0.00251885
-0.00364541
0.00559795
0.00157073
0.00536634
0.00111645
-0.00461332
0.00416098
0.00724099
-0.00463929
0.0046793
0.00382547
-0.00444402
0.00482409
0.00268333
-0.00407643
0.00483072
0.00164545
0.00471479
0.00114708
-0.00520028
0.00259336
0.0071548
-0.00515042
0.00344342
0.00379582
-0.00488727
0.00380155
0.00262214
-0.00445797
0.00400091
0.00158706
0.00401306
0.00108276
-0.00576701
0.000895288
0.00643145
-0.00558054
0.00216369
0.00340312
-0.00523944
0.00276246
0.00231667
-0.00476307
0.0031496
0.00138448
0.00328996
0.000922643
-0.00617039
-0.0006123
0.00509463
-0.00588164
0.000949806
0.00274307
-0.00547868
0.00176992
0.00184619
-0.00497801
0.0023172
0.00108465
0.00256908
0.000699274
-0.00581641
-0.000788929
0.00210271
-0.0057403
0.000352787
0.0014834
-0.0054599
0.00109813
0.00106826
-0.00503715
0.00161896
0.000658602
0.00188782
0.000411226
-0.00555242
-0.000720451
0.00120804
-0.00559222
-7.73203e-06
0.000808299
-0.00538709
0.00054249
0.000539653
-0.00502614
0.000956238
0.000294621
0.00119801
0.000133291
-0.00498787
-0.000427338
0.000377093
-0.00518645
-0.000131241
0.00020728
-0.00511177
0.000128437
8.80039e-05
-0.00485277
0.000355923
-3.50062e-05
0.000515475
-0.000124766
-0.00334341
0.00019273
-0.0037512
2.96294e-05
-0.00392485
-9.76177e-05
-0.00389405
-0.000202448
-0.000277444
-0.000392093
-0.00015328
0.00217164
1.17531e-05
-0.00016801
0.00218201
0.000417496
-0.000171734
0.00218423
0.000816522
-0.000163031
0.00217908
-0.000147112
0.00215477
-0.000428729
-0.000537385
0.00101451
2.25478e-05
-0.000569379
0.00100089
0.000474639
-0.000575703
0.00100082
0.000915697
-0.000555297
0.00101482
-0.000531688
0.00100893
-0.000346387
-0.000954677
-0.00122746
2.85927e-05
-0.000982388
-0.001273
0.000402751
-0.00098663
-0.00127553
0.000770517
-0.000968624
-0.00123807
-0.000954579
-0.00122171
-0.000162044
-0.000188651
-0.00534053
1.08224e-05
-0.000201504
-0.0053554
0.00018541
-0.00020607
-0.00535426
0.000375597
-0.000202781
-0.00533961
-0.000199885
-0.00534143
-0.000180561
0.000540039
-0.0048733
4.257e-06
0.00053182
-0.00486771
0.000190247
0.000526614
-0.00486617
0.000383491
0.000524081
-0.00486892
0.000520546
-0.00488196
-0.000185579
0.00124431
-0.00484175
-1.71253e-06
0.00124042
-0.00483797
0.000182953
0.0012345
-0.00483708
0.000374422
0.00122625
-0.00483909
0.00121388
-0.00484895
-0.000191619
0.00196001
-0.00475037
-7.06266e-06
0.00195986
-0.00474703
0.000177838
0.00195366
-0.0047461
0.000368178
0.00194105
-0.00474752
0.0019202
-0.00475599
-0.000192594
0.00269474
-0.00470335
-1.25246e-05
0.00269927
-0.00470036
0.00016735
0.00269331
-0.0046992
0.000352244
0.00267653
-0.00469977
0.00264694
-0.00470672
-0.000190329
0.00347793
-0.00469708
-1.83124e-05
0.00348778
-0.00469393
0.000152824
0.00348264
-0.00469222
0.000328195
0.00346224
-0.00469175
0.00342427
-0.00469711
-0.000182955
0.00433907
-0.00469248
-2.28775e-05
0.00435647
-0.00468787
0.000135346
0.00435311
-0.00468487
0.000297056
0.00432966
-0.00468276
0.00046588
0.0042833
-0.00468585
0.00421346
-0.000168332
0.00543845
-0.00485447
-2.81849e-05
0.00546385
-0.00484325
0.000108736
0.0054629
-0.00483717
0.000248165
0.00543726
-0.00483415
0.00039385
0.00538351
-0.00483798
0.00530321
-0.00484684
-0.00014724
0.00593237
-0.0033277
-2.81902e-05
0.00595737
-0.00327311
8.41775e-05
0.00595644
-0.00325336
0.000201326
0.00592808
-0.00324804
0.000327614
0.0058668
-0.0032513
0.00577437
-0.00325299
-0.000180119
0.00596693
-0.00191874
-6.39622e-05
0.00601785
-0.00192937
3.95229e-05
0.00602725
-0.00191452
0.000137081
0.0059959
-0.00188835
0.000235033
0.00592181
-0.00186477
0.00581248
-0.00184065
-0.000196773
0.00584877
-0.00101121
-9.9712e-05
0.00591576
-0.00100939
-1.65018e-05
0.005934
-0.000988761
5.72936e-05
0.0059032
-0.000957822
0.000127062
0.00582155
-0.000931233
0.00570108
-0.000907729
-0.000213649
0.00573201
-0.000496273
-0.000138522
0.00581173
-0.000484228
-7.76198e-05
0.0058387
-0.0004615
-2.62181e-05
0.00581061
-0.000433546
1.88574e-05
0.00572445
-0.000410427
0.00559604
-0.000392775
-0.000233261
0.00564954
-0.000191803
-0.000180282
0.0057379
-0.000169119
-0.000140176
0.00576813
-0.000141506
-0.000108622
0.0057387
-0.000112221
-8.47265e-05
0.00564724
-8.9945e-05
0.00551134
-7.64574e-05
-0.000257082
0.00562061
-3.23071e-05
-0.000226763
0.0057105
4.85071e-06
-0.000208708
0.00573914
3.84559e-05
-0.000198243
0.0057052
6.89699e-05
-0.000195036
0.00560816
8.8757e-05
0.0054661
9.538e-05
-0.000288887
0.00564789
3.96518e-05
-0.000281427
0.0057327
9.05953e-05
-0.000285448
0.00575672
0.000129189
-0.000295196
0.00571662
0.000159287
-0.00031008
0.00561445
0.000174876
0.00546823
0.000174256
-0.000329576
0.00572521
5.76459e-05
-0.000346046
0.00580276
0.000117369
-0.00037168
0.00581921
0.000159523
-0.000399944
0.00577079
0.00018876
-0.000429929
0.00566243
0.000200803
0.00551185
0.000195102
-0.000381058
0.00584541
4.63078e-05
-0.000422226
0.00591401
0.000111316
-0.000468919
0.00591944
0.000156024
-0.000514109
0.00585947
0.000184562
-0.000556647
0.00574215
0.000194385
0.00558506
0.000186138
-0.000444719
0.00600333
2.21982e-05
-0.000511957
0.00606081
9.00949e-05
-0.000579595
0.00605072
0.000136433
-0.000640502
0.00597477
0.000164219
-0.000693545
0.00584423
0.000172732
0.005677
0.000163936
-0.000522871
0.00619741
-3.15717e-06
-0.000618056
0.00624077
6.61957e-05
-0.000707011
0.00620902
0.000113218
-0.000782765
0.00611114
0.000139869
-0.000844478
0.00596171
0.000147474
0.00577945
0.000139345
-0.000618966
0.00643231
-2.03386e-05
-0.000744419
0.00645496
5.00986e-05
-0.00085533
0.00639318
9.64809e-05
-0.000945132
0.00626553
0.000121018
-0.00101357
0.00608991
0.000127365
0.00588663
0.000120245
-0.000736636
0.00671759
-1.78329e-05
-0.000895959
0.00670777
5.30195e-05
-0.00102963
0.00660421
9.60809e-05
-0.00113244
0.00643662
0.000116332
-0.00120509
0.00622555
0.000119861
0.00599413
0.000112932
-0.000879488
0.00706297
2.14785e-05
-0.00107846
0.00700638
8.88156e-05
-0.00123589
0.00684434
0.000123115
-0.00135014
0.00662368
0.000134787
-0.00142343
0.0063655
0.000132044
0.00609774
0.000122897
-0.00105317
0.00747976
0.00012279
-0.00130044
0.00735945
0.000177949
-0.00148218
0.00711483
0.000192541
-0.00160499
0.00682472
0.000187413
-0.00167344
0.00650501
0.000171588
0.00619199
0.000155389
-0.00126434
0.00798031
0.000318524
-0.00157238
0.00777606
0.000347309
-0.00177753
0.00741384
0.000322117
-0.00190422
0.00703494
0.000286642
-0.0019598
0.00663631
0.00024612
0.00626913
0.000214916
-0.00152763
0.00856571
0.000687553
-0.00191832
0.0082572
0.000660634
-0.00214031
0.00772542
0.000547092
-0.00226069
0.00723917
0.000454069
-0.00228963
0.00674349
0.000366234
0.0063162
0.000306342
-0.00184487
0.00128363
-0.00234887
0.00880071
0.0011619
-0.00257707
0.00802575
0.000885277
-0.00267911
0.00741703
0.000701827
-0.0026645
0.00680591
0.000535529
0.0063171
0.000429866
-0.00297634
0.00928866
0.00221302
-0.00315654
0.00819385
0.00146604
-0.0031967
0.0074891
0.00109534
-0.00310022
0.00677184
0.000773749
0.00624013
0.000590254
-0.00367342
0.00971811
0.00352347
-0.00379437
0.00820933
0.00213802
-0.00376259
0.00742838
0.00156737
-0.00356727
0.00661853
0.00104274
0.00606726
0.000765722
-0.00505762
0.00831482
0.00845737
-0.00480445
0.0074281
0.00351235
-0.00450079
0.00686856
0.00238747
-0.0041084
0.0062072
0.00139648
0.0057335
0.000965348
-0.00582823
0.00671476
0.0102907
-0.00549728
0.00644561
0.00420544
-0.00507296
0.00609801
0.00286508
-0.00456483
0.00564997
0.00161983
0.0052858
0.0010924
-0.00638441
0.00509209
0.0110041
-0.00601722
0.00533234
0.00457155
-0.00551787
0.00520725
0.00307474
-0.00493046
0.00499232
0.00171569
0.00475738
0.00113227
-0.00693883
0.00334978
0.0109429
-0.00646495
0.00408218
0.00457211
-0.0058769
0.00422029
0.00302105
-0.00521878
0.00425374
0.00166752
0.00416736
0.00107611
-0.00738569
0.00132139
0.010042
-0.00676449
0.00272641
0.00413769
-0.0061006
0.00318227
0.00269081
-0.00540321
0.00347409
0.00146673
0.00354305
0.000926727
-0.00763276
-0.000713216
0.00821038
-0.00690298
0.0013331
0.0034066
-0.0061941
0.00212657
0.00219301
-0.00548951
0.00267674
0.00117742
0.00289599
0.000729208
-0.00667565
-0.00068739
0.00275623
-0.00636492
0.000773859
0.00173192
-0.005918
0.00151042
0.00123749
-0.00537677
0.00203371
0.000760406
0.0022892
0.000491279
-0.00616897
-0.000547955
0.00169833