/*--------------------------------*- C++ -*----------------------------------*\
| =========                 |                                                 |
| \\      /  F ield         | OpenFOAM: The Open Source CFD Toolbox           |
|  \\    /   O peration     | Version:  2.3.1                                 |
|   \\  /    A nd           | Web:      www.OpenFOAM.org                      |
|    \\/     M anipulation  |                                                 |
\*---------------------------------------------------------------------------*/
FoamFile
{
    version     2.0;
    format      ascii;
    class       volScalarField;
    location    "600";
    object      T;
}
// * * * * * * * * * * * * * * * * * * * * * * * * * * * * * * * * * * * * * //

dimensions      [0 0 0 1 0 0 0];

internalField   nonuniform List<scalar> 
6852
(
289.15
289.15
289.15
289.15
289.15
289.15
289.15
289.15
289.15
289.15
289.15
289.15
289.15
289.15
289.15
289.15
289.15
289.15
289.15
289.15
289.15
289.15
289.15
289.15
289.15
289.15
289.15
289.15
289.15
289.15
289.15
289.15
289.15
289.15
289.15
289.15
289.15
289.15
289.15
289.15
289.15
289.15
289.15
289.15
289.15
289.15
289.15
289.15
289.15
289.15
289.15
289.15
289.15
289.15
289.15
289.15
289.15
289.15
289.15
289.15
289.15
289.15
289.15
289.15
289.15
289.15
289.15
289.15
289.15
289.15
289.15
289.15
289.15
289.15
289.15
289.15
289.15
289.15
289.15
289.15
289.15
289.15
289.15
289.15
289.15
289.15
289.15
289.15
289.15
289.15
289.15
289.15
289.15
289.15
289.15
289.15
289.15
289.15
289.15
289.15
289.15
289.15
289.15
289.15
289.15
289.15
289.15
289.15
289.15
289.15
289.15
289.15
289.15
289.15
289.15
289.15
289.15
289.15
289.15
289.15
289.15
289.15
289.15
289.15
289.15
289.15
289.15
289.15
289.15
289.15
289.15
289.15
289.15
289.15
289.15
289.15
289.15
289.15
289.15
289.15
289.15
289.15
289.15
289.15
289.15
289.15
289.15
289.15
289.15
289.15
289.15
289.15
289.15
289.15
289.15
289.15
289.15
289.15
289.15
289.15
289.15
289.15
289.15
289.15
289.15
289.15
289.15
289.15
289.15
289.15
289.15
289.15
289.15
289.15
289.15
289.15
289.15
289.15
289.15
289.15
289.15
289.15
289.15
289.15
289.15
289.15
289.15
289.15
289.15
289.15
289.15
289.15
289.15
289.15
289.15
289.15
289.15
289.15
289.15
289.15
289.15
289.15
289.15
289.15
289.15
289.15
289.15
289.15
289.15
289.15
289.15
289.15
289.15
289.15
289.15
289.15
289.15
289.15
289.15
289.15
289.15
289.15
289.15
289.15
289.15
289.15
289.15
289.15
289.15
289.15
289.15
289.15
289.15
289.15
289.15
289.15
289.15
289.15
289.15
289.15
289.15
289.15
289.15
289.15
289.15
289.15
289.15
289.15
289.15
289.15
289.15
289.15
289.15
289.15
289.15
289.15
289.15
289.15
289.15
289.15
289.15
289.15
289.15
289.15
289.15
289.15
289.15
289.15
289.15
289.15
289.15
289.15
289.15
289.15
289.15
289.15
289.15
289.15
289.15
289.15
289.15
289.15
289.15
289.15
289.15
289.15
289.15
289.15
289.15
289.15
289.15
289.15
289.15
289.15
289.15
289.15
289.15
289.15
289.15
289.15
289.15
289.15
289.15
289.15
289.15
289.15
289.15
289.15
289.15
289.15
289.15
289.15
289.15
289.15
289.15
289.15
289.15
289.15
289.15
289.15
289.15
289.15
289.15
289.15
289.15
289.15
289.15
289.15
289.15
289.15
289.15
289.15
289.15
289.15
289.15
289.15
289.15
289.15
289.15
289.15
289.15
289.15
289.15
289.15
289.15
289.15
289.15
289.15
289.15
289.15
289.15
289.15
289.15
289.15
289.15
289.15
289.15
289.15
289.15
289.15
289.15
289.15
289.15
289.15
289.15
289.15
289.15
289.15
289.15
289.15
289.15
289.15
289.15
289.15
289.15
289.15
289.15
289.15
289.15
289.15
289.15
289.15
289.15
289.15
289.15
289.15
289.15
289.15
289.15
289.15
289.15
289.15
289.15
289.15
289.15
289.15
289.15
289.15
289.15
289.15
289.15
289.15
289.15
289.15
289.15
289.15
289.15
289.15
289.15
289.15
289.15
289.15
289.15
289.15
289.15
289.15
289.15
289.15
289.15
289.15
289.15
289.15
289.15
289.15
289.15
289.15
289.15
289.15
289.15
289.15
289.15
289.15
289.15
289.15
289.15
289.15
289.15
289.15
289.15
289.15
289.15
289.15
289.15
289.15
289.15
289.15
289.15
289.15
289.15
289.15
289.15
289.15
289.15
289.15
289.15
289.15
289.15
289.15
289.15
289.15
289.15
289.15
289.15
289.15
289.15
289.15
289.15
289.15
289.15
289.15
289.15
289.15
289.15
289.15
289.15
289.15
289.15
289.15
289.15
289.15
289.15
289.15
289.15
289.15
289.15
289.15
289.15
289.15
289.15
289.15
289.15
289.15
289.15
289.15
289.15
289.15
289.15
289.15
289.15
289.15
289.15
289.15
289.15
289.15
289.15
289.15
289.15
289.15
289.15
289.15
289.15
289.15
289.15
289.15
289.15
289.15
289.15
289.15
289.15
289.15
289.15
289.15
289.15
289.15
289.15
289.15
289.15
289.15
289.15
289.15
289.15
289.15
289.15
289.15
289.15
289.15
289.15
289.15
289.15
289.15
289.15
289.15
289.15
289.15
289.15
289.15
289.15
289.15
289.15
289.15
289.15
289.15
289.15
289.15
289.15
289.15
289.15
289.15
289.15
289.15
289.15
289.15
289.15
289.15
289.15
289.15
289.15
289.15
289.15
289.15
289.15
289.15
289.15
289.15
289.15
289.15
289.15
289.15
289.15
289.15
289.15
289.15
289.15
289.15
289.15
289.15
289.15
289.15
289.15
289.15
289.15
289.15
289.15
289.15
289.15
289.15
289.15
289.15
289.15
289.15
289.15
289.15
289.15
289.15
289.15
289.15
289.15
289.15
289.15
289.15
289.15
289.15
289.15
289.15
289.15
289.15
289.15
289.15
289.15
289.15
289.15
289.15
289.15
289.15
289.15
289.15
289.15
289.15
289.15
289.15
289.15
289.15
289.15
289.15
289.15
289.15
289.15
289.15
289.15
289.15
289.15
289.15
289.15
289.15
289.15
289.15
289.15
289.15
289.15
289.15
289.15
289.15
289.15
289.15
289.15
289.15
289.15
289.15
289.15
289.15
289.15
289.15
289.15
289.15
289.15
289.15
289.15
289.15
289.15
289.15
289.15
289.15
289.15
289.15
289.15
289.15
289.15
289.15
289.15
289.15
289.15
289.15
289.15
289.15
289.15
289.15
289.15
289.15
289.15
289.15
289.15
289.15
289.15
289.15
289.15
289.15
289.15
289.15
289.15
289.15
289.15
289.15
289.15
289.15
289.15
289.15
289.15
289.15
289.15
289.15
289.15
289.15
289.15
289.15
289.15
289.15
289.15
289.15
289.15
289.15
289.15
289.15
289.15
289.15
289.15
289.15
289.15
289.15
289.15
289.15
289.15
289.15
289.15
289.15
289.15
289.15
289.15
289.15
289.15
289.15
289.15
289.15
289.15
289.15
289.15
289.15
289.15
289.15
289.15
289.15
289.15
289.15
289.15
289.15
289.15
289.15
289.15
289.15
289.15
289.15
289.15
289.15
289.15
289.15
289.15
289.15
289.15
289.15
289.15
289.15
289.15
289.15
289.15
289.15
289.15
289.15
289.15
289.15
289.15
289.15
289.15
289.15
289.15
289.15
289.15
289.15
289.15
289.15
289.15
289.15
289.15
289.15
289.15
289.15
289.15
289.15
289.15
289.15
289.15
289.15
289.15
289.15
289.15
289.15
289.15
289.15
289.15
289.15
289.15
289.15
289.15
289.15
289.15
289.15
289.15
289.15
289.15
289.15
289.15
289.15
289.15
289.15
289.15
289.15
289.15
289.15
289.15
289.15
289.15
289.15
289.15
289.15
289.15
289.15
289.15
289.15
289.15
289.15
289.15
289.15
289.15
289.15
289.15
289.15
289.15
289.15
289.15
289.15
289.15
289.15
289.15
289.15
289.15
289.15
289.15
289.15
289.15
289.15
289.15
289.15
289.15
289.15
289.15
289.15
289.15
289.15
289.15
289.15
289.15
289.15
289.15
289.15
289.15
289.15
289.15
289.15
289.15
289.15
289.15
289.15
289.15
289.15
289.15
289.15
289.15
289.15
289.15
289.15
289.15
289.15
289.15
289.15
289.15
289.15
289.15
289.15
289.15
289.15
289.15
289.15
289.15
289.15
289.15
289.15
289.15
289.15
289.15
289.15
289.15
289.15
289.15
289.15
289.15
289.15
289.15
289.15
289.15
289.15
289.15
289.15
289.15
289.15
289.15
289.15
289.15
289.15
289.15
289.15
289.15
289.15
289.15
289.15
289.15
289.15
289.15
289.15
289.15
289.15
289.15
289.15
289.15
289.15
289.15
289.15
289.15
289.15
289.15
289.15
289.15
289.15
289.15
289.15
289.15
289.15
289.15
289.15
289.15
289.15
289.15
289.15
289.15
289.15
289.15
289.15
289.15
289.15
289.15
289.15
289.15
289.15
289.15
289.15
289.15
289.15
289.15
289.15
289.15
289.15
289.15
289.15
289.15
289.15
289.15
289.15
289.15
289.15
289.15
289.15
289.15
289.15
289.15
289.15
289.15
289.15
289.15
289.15
289.15
289.15
289.15
289.15
289.15
289.15
289.15
289.15
289.15
289.15
289.15
289.15
289.15
289.15
289.15
289.15
289.15
289.15
289.15
289.15
289.15
289.15
289.15
289.15
289.15
289.15
289.15
289.15
289.15
289.15
289.15
289.15
289.15
289.15
289.15
289.15
289.15
289.15
289.15
289.15
289.15
289.15
289.15
289.15
289.15
289.15
289.15
289.15
289.15
289.15
289.15
289.15
289.15
289.15
289.15
289.15
289.15
289.15
289.15
289.15
289.15
289.15
289.15
289.15
289.15
289.15
289.15
289.15
289.15
289.15
289.15
289.15
289.15
289.15
289.15
289.15
289.15
289.15
289.15
289.15
289.15
289.15
289.15
289.15
289.15
289.15
289.15
289.15
289.15
289.15
289.15
289.15
289.15
289.15
289.15
289.15
289.15
289.15
289.15
289.15
289.15
289.15
289.15
289.15
289.15
289.15
289.15
289.15
289.15
289.15
289.15
289.15
289.15
289.15
289.15
289.15
289.15
289.15
289.15
289.15
289.15
289.15
289.15
289.15
289.15
289.15
289.15
289.15
289.15
289.15
289.15
289.15
289.15
289.15
289.15
289.15
289.15
289.15
289.15
289.15
289.15
289.15
289.15
289.15
289.15
289.15
289.15
289.15
289.15
289.15
289.15
289.15
289.15
289.15
289.15
289.15
289.15
289.15
289.15
289.15
289.15
289.15
289.15
289.15
289.15
289.15
289.15
289.15
289.15
289.15
289.15
289.15
289.15
289.15
289.15
289.15
289.15
289.15
289.15
289.15
289.15
289.15
289.15
289.15
289.15
289.15
289.15
289.15
289.15
289.15
289.15
289.15
289.15
289.15
289.15
289.15
289.15
289.15
289.15
289.15
289.15
289.15
289.15
289.15
289.15
289.15
289.15
289.15
289.15
289.15
289.15
289.15
289.15
289.15
289.15
289.15
289.15
289.15
289.15
289.15
289.15
289.15
289.15
289.15
289.15
289.15
289.15
289.15
289.15
289.15
289.15
289.15
289.15
289.15
289.15
289.15
289.15
289.15
289.15
289.15
289.15
289.15
289.15
289.15
289.15
289.15
289.15
289.15
289.15
289.15
289.15
289.15
289.15
289.15
289.15
289.15
289.15
289.15
289.15
289.15
289.15
289.15
289.15
289.15
289.15
289.15
289.15
289.15
289.15
289.15
289.15
289.15
289.15
289.15
289.15
289.15
289.15
289.15
289.15
289.15
289.15
289.15
289.15
289.15
289.15
289.15
289.15
289.15
289.15
289.15
289.15
289.15
289.15
289.15
289.15
289.15
289.15
289.15
289.15
289.15
289.15
289.15
289.15
289.15
289.15
289.15
289.15
289.15
289.15
289.15
289.15
289.15
289.15
289.15
289.15
289.15
289.15
289.15
289.15
289.15
289.15
289.15
289.15
289.15
289.15
289.15
289.15
289.15
289.15
289.15
289.15
289.15
289.15
289.15
289.15
289.15
289.15
289.15
289.15
289.15
289.15
289.15
289.15
289.15
289.15
289.15
289.15
289.15
289.15
289.15
289.15
289.15
289.15
289.15
289.15
289.15
289.15
289.15
289.15
289.15
289.15
289.15
289.15
289.15
289.15
289.15
289.15
289.15
289.15
289.15
289.15
289.15
289.15
289.15
289.15
289.15
289.15
289.15
289.15
289.15
289.15
289.15
289.15
289.15
289.15
289.15
289.15
289.15
289.15
289.15
289.15
289.15
289.15
289.15
289.15
289.15
289.15
289.15
289.15
289.15
289.15
289.15
289.15
289.15
289.15
289.15
289.15
289.15
289.15
289.15
289.15
289.15
289.15
289.15
289.15
289.15
289.15
289.15
289.15
289.15
289.15
289.15
289.15
289.15
289.15
289.15
289.15
289.15
289.15
289.15
289.15
289.15
289.15
289.15
289.15
289.15
289.15
289.15
289.15
289.15
289.15
289.15
289.15
289.15
289.15
289.155
289.15
289.151
289.151
289.151
289.151
289.151
290.21
290.211
290.212
290.213
290.213
290.209
290.21
290.211
290.212
290.213
290.21
290.211
290.212
290.212
290.213
289.996
289.98
289.967
289.958
289.953
289.999
289.989
289.978
289.961
289.953
289.99
289.984
289.977
289.968
289.957
289.983
289.979
289.975
289.968
289.96
289.95
289.98
289.977
289.973
289.968
289.961
289.951
289.979
289.977
289.974
289.97
289.963
289.952
289.989
289.987
289.983
289.976
289.966
289.955
290.06
290.048
290.025
289.997
289.973
289.959
290.51
290.385
290.221
290.07
289.99
289.965
293.24
292.049
291.045
290.279
290.022
289.973
298.579
297.76
293.255
290.505
290.056
289.979
299.077
298.991
293.911
290.584
290.077
289.981
291.766
290.51
290.077
289.979
290.885
290.376
290.064
289.972
290.547
290.267
290.044
289.961
290.392
290.195
290.024
289.947
290.303
290.145
290.005
289.932
290.244
290.109
289.985
289.915
290.189
290.077
289.964
289.898
290.101
290.037
289.939
289.878
289.154
289.195
289.832
289.964
289.91
289.858
289.151
289.17
289.698
289.898
289.877
289.838
289.15
289.164
289.637
289.848
289.846
289.82
289.15
289.163
289.604
289.811
289.82
289.805
289.165
289.618
289.787
289.8
289.792
289.194
289.606
289.768
289.784
289.781
289.593
289.735
289.766
289.771
289.769
289.728
289.749
289.756
289.758
289.757
289.735
289.74
289.743
289.745
289.745
289.73
289.733
289.736
289.737
289.738
290.212
290.213
290.214
290.214
290.215
290.212
290.213
290.213
290.214
290.214
290.212
290.212
290.213
290.214
290.214
289.987
289.974
289.962
289.955
289.952
289.97
289.968
289.964
289.958
289.953
289.957
289.957
289.957
289.956
289.953
289.95
289.952
289.953
289.954
289.953
289.948
289.951
289.954
289.956
289.956
289.952
289.955
289.959
289.961
289.963
289.962
289.957
289.986
289.988
289.986
289.982
289.976
289.966
290.12
290.103
290.071
290.037
290.008
289.982
290.792
290.627
290.404
290.208
290.081
290.006
294.306
292.998
291.624
290.692
290.218
290.032
298.526
297.924
294.069
291.414
290.307
290.053
299.051
298.905
294.945
291.306
290.308
290.059
292.193
290.941
290.268
290.051
291.098
290.644
290.213
290.032
290.702
290.448
290.158
290.007
290.516
290.322
290.108
289.978
290.408
290.238
290.065
289.949
290.331
290.176
290.024
289.919
290.264
290.123
289.985
289.89
290.133
290.068
289.945
289.862
289.161
289.238
289.788
289.973
289.904
289.835
289.153
289.193
289.65
289.89
289.864
289.811
289.151
289.179
289.591
289.83
289.828
289.79
289.151
289.176
289.562
289.787
289.799
289.774
289.153
289.181
289.584
289.761
289.776
289.761
289.231
289.582
289.74
289.758
289.75
289.533
289.673
289.738
289.745
289.739
289.693
289.72
289.734
289.734
289.729
289.722
289.726
289.728
289.726
289.723
289.72
289.723
289.725
289.725
289.724
290.219
290.219
290.219
290.219
290.219
290.22
290.22
290.219
290.219
290.219
290.218
290.218
290.218
290.218
290.218
289.961
289.959
289.954
289.95
289.948
289.939
289.942
289.945
289.946
289.947
289.926
289.932
289.937
289.942
289.945
289.922
289.93
289.936
289.943
289.947
289.93
289.938
289.945
289.951
289.955
289.96
289.967
289.97
289.972
289.971
289.963
290.05
290.046
290.034
290.019
290.004
289.982
290.339
290.282
290.205
290.132
290.07
290.015
291.413
291.096
290.728
290.42
290.206
290.068
295.432
294.132
292.319
291.122
290.45
290.13
298.522
297.984
294.748
292.073
290.668
290.168
299.038
298.888
295.642
292.107
290.634
290.173
292.549
291.449
290.529
290.149
291.331
290.968
290.409
290.109
290.884
290.665
290.299
290.059
290.665
290.473
290.204
290.008
290.531
290.344
290.125
289.959
290.433
290.247
290.056
289.913
290.336
290.168
289.995
289.872
290.145
290.087
289.938
289.835
289.172
289.274
289.745
289.956
289.885
289.801
289.156
289.217
289.609
289.857
289.837
289.773
289.153
289.194
289.554
289.791
289.795
289.751
289.152
289.189
289.529
289.746
289.762
289.733
289.155
289.199
289.554
289.719
289.736
289.717
289.192
289.262
289.56
289.699
289.716
289.703
289.499
289.63
289.694
289.7
289.69
289.635
289.673
289.692
289.691
289.685
289.685
289.689
289.692
289.691
289.688
289.697
289.698
289.699
289.699
289.7
290.228
290.227
290.227
290.226
290.225
290.23
290.229
290.228
290.228
290.227
290.227
290.226
290.226
290.225
290.225
289.934
289.939
289.942
289.944
289.944
289.915
289.922
289.929
289.936
289.941
289.908
289.917
289.926
289.934
289.941
289.914
289.925
289.934
289.943
289.949
289.942
289.953
289.96
289.964
289.965
290.017
290.02
290.015
290.007
289.996
290.201
290.174
290.134
290.092
290.051
290.005
290.702
290.567
290.412
290.271
290.153
290.053
292.365
291.717
291.133
290.671
290.345
290.127
296.146
295.035
292.944
291.511
290.656
290.212
298.524
298.015
295.208
292.521
290.93
290.265
299.034
298.887
296.004
292.604
290.883
290.267
292.777
291.8
290.729
290.226
291.516
291.204
290.553
290.16
291.031
290.821
290.393
290.085
290.778
290.575
290.259
290.012
290.615
290.406
290.149
289.946
290.491
290.282
290.059
289.889
290.366
290.181
289.981
289.84
290.122
290.078
289.913
289.797
289.185
289.301
289.702
289.92
289.853
289.76
289.162
289.239
289.574
289.814
289.801
289.731
289.155
289.209
289.524
289.75
289.757
289.708
289.154
289.201
289.502
289.707
289.722
289.687
289.159
289.216
289.527
289.681
289.693
289.668
289.206
289.286
289.54
289.661
289.67
289.651
289.433
289.476
289.596
289.654
289.653
289.64
289.595
289.635
289.651
289.647
289.64
289.648
289.655
289.658
289.657
289.654
289.671
289.673
289.675
289.676
289.677
290.239
290.238
290.236
290.235
290.233
290.243
290.241
290.239
290.238
290.236
290.237
290.236
290.235
290.234
290.232
289.916
289.923
289.932
289.94
289.942
289.906
289.914
289.923
289.933
289.94
289.908
289.919
289.929
289.939
289.946
289.932
289.944
289.954
289.96
289.962
289.998
290.005
290.004
290
289.989
290.14
290.125
290.099
290.069
290.033
290.45
290.373
290.282
290.193
290.109
291.203
290.942
290.671
290.435
290.241
290.082
293.32
292.438
291.57
290.925
290.47
290.164
296.626
295.653
293.444
291.824
290.809
290.257
298.532
298.032
295.49
292.788
291.077
290.319
299.032
298.885
296.142
292.828
291.031
290.318
292.915
291.981
290.843
290.259
291.654
291.333
290.627
290.172
291.136
290.904
290.43
290.077
290.85
290.62
290.267
289.988
290.658
290.422
290.136
289.911
290.509
290.276
290.031
289.847
290.359
290.16
289.945
289.794
290.079
290.04
289.871
289.749
289.198
289.32
289.666
289.868
289.809
289.712
289.169
289.259
289.547
289.764
289.754
289.682
289.158
289.223
289.499
289.707
289.709
289.657
289.156
289.213
289.48
289.668
289.675
289.636
289.163
289.231
289.504
289.644
289.647
289.617
289.218
289.304
289.521
289.626
289.625
289.602
289.415
289.46
289.569
289.618
289.61
289.594
289.548
289.565
289.604
289.617
289.609
289.6
289.619
289.628
289.63
289.627
289.624
289.649
289.652
289.655
289.657
289.658
290.252
290.25
290.247
290.245
290.242
290.256
290.254
290.251
290.249
290.246
290.25
290.248
290.245
290.243
290.241
289.912
289.918
289.928
289.94
289.943
289.909
289.918
289.929
289.94
289.946
289.927
289.939
289.95
289.958
289.959
289.983
289.993
289.996
289.994
289.982
290.103
290.096
290.078
290.052
290.017
290.333
290.281
290.215
290.146
290.073
290.794
290.633
290.464
290.306
290.163
291.844
291.38
290.955
290.6
290.315
294.104
293.142
291.983
291.148
290.561
290.173
296.965
296.043
293.808
292.04
290.889
290.268
298.542
298.033
295.623
292.902
291.121
290.331
299.032
298.881
296.122
292.851
291.082
290.322
292.987
292.028
290.876
290.25
291.748
291.372
290.636
290.146
291.202
290.923
290.417
290.038
290.886
290.618
290.237
289.941
290.668
290.403
290.095
289.859
290.499
290.245
289.984
289.793
290.331
290.119
289.893
289.74
290.031
289.992
289.817
289.696
289.212
289.333
289.637
289.82
289.759
289.661
289.178
289.275
289.527
289.721
289.711
289.635
289.162
289.236
289.481
289.668
289.672
289.614
289.159
289.224
289.463
289.635
289.64
289.596
289.168
289.245
289.485
289.613
289.614
289.579
289.229
289.318
289.505
289.597
289.593
289.565
289.401
289.448
289.546
289.591
289.579
289.559
289.522
289.542
289.58
289.591
289.581
289.57
289.592
289.596
289.606
289.608
289.605
289.602
289.63
289.635
289.638
289.641
289.644
290.266
290.263
290.26
290.256
290.253
290.271
290.268
290.265
290.261
290.257
290.263
290.26
290.257
290.254
290.251
289.917
289.923
289.932
289.945
289.947
289.924
289.936
289.946
289.956
289.955
289.967
289.98
289.986
289.987
289.974
290.067
290.069
290.058
290.037
290.003
290.253
290.22
290.171
290.113
290.044
290.584
290.475
290.351
290.228
290.105
291.208
290.931
290.66
290.416
290.201
292.495
291.837
291.234
290.745
290.357
294.724
293.729
292.33
291.317
290.599
297.208
296.294
294.045
292.159
290.897
290.257
298.553
298.017
295.636
292.893
291.088
290.31
299.033
298.872
295.993
292.749
291.061
290.292
293.011
291.985
290.849
290.209
291.804
291.35
290.6
290.098
291.236
290.9
290.374
289.986
290.897
290.589
290.19
289.888
290.661
290.368
290.047
289.809
290.48
290.208
289.938
289.747
290.301
290.082
289.85
289.698
289.989
289.955
289.78
289.658
289.224
289.343
289.618
289.785
289.728
289.628
289.188
289.289
289.513
289.688
289.682
289.605
289.166
289.249
289.468
289.637
289.646
289.586
289.161
289.234
289.45
289.607
289.617
289.569
289.173
289.258
289.469
289.588
289.592
289.553
289.238
289.328
289.492
289.575
289.572
289.541
289.39
289.44
289.529
289.57
289.559
289.537
289.502
289.524
289.56
289.573
289.562
289.551
289.571
289.577
289.588
289.591
289.589
289.587
289.611
289.614
289.62
289.625
289.629
289.633
290.281
290.277
290.273
290.268
290.263
290.286
290.283
290.278
290.274
290.269
290.277
290.273
290.269
290.265
290.261
289.93
289.937
289.944
289.954
289.952
289.953
289.965
289.974
289.977
289.965
290.028
290.037
290.035
290.021
289.989
290.178
290.164
290.131
290.085
290.02
290.436
290.366
290.275
290.173
290.062
290.873
290.69
290.493
290.303
290.122
291.662
291.244
290.852
290.509
290.217
293.063
292.286
291.484
290.855
290.37
295.208
294.16
292.589
291.422
290.597
297.382
296.445
294.17
292.185
290.862
298.562
297.983
295.55
292.769
291.038
290.27
299.034
298.858
295.766
292.598
291.004
290.244
293.006
291.896
290.791
290.156
291.833
291.295
290.543
290.045
291.252
290.858
290.321
289.937
290.897
290.552
290.143
289.845
290.651
290.334
290.006
289.771
290.463
290.176
289.902
289.715
290.279
290.054
289.821
289.671
289.957
289.928
289.755
289.635
289.237
289.352
289.606
289.761
289.707
289.607
289.199
289.302
289.503
289.664
289.664
289.587
289.172
289.26
289.459
289.613
289.628
289.57
289.165
289.244
289.44
289.584
289.6
289.554
289.178
289.268
289.457
289.568
289.577
289.539
289.247
289.335
289.48
289.558
289.558
289.527
289.383
289.433
289.514
289.555
289.547
289.524
289.486
289.509
289.545
289.559
289.55
289.54
289.553
289.562
289.575
289.58
289.579
289.579
289.595
289.6
289.608
289.614
289.62
289.625
290.297
290.292
290.286
290.281
290.275
290.303
290.298
290.293
290.287
290.281
290.292
290.287
290.282
290.277
290.272
289.951
289.957
289.962
289.966
289.957
289.992
290.004
290.008
290.002
289.975
290.102
290.104
290.089
290.057
290.001
290.303
290.269
290.209
290.131
290.031
290.635
290.521
290.38
290.228
290.07
291.18
290.908
290.629
290.363
290.13
292.08
291.54
291.022
290.572
290.225
293.54
292.672
291.686
290.914
290.374
295.579
294.467
292.762
291.45
290.586
297.504
296.519
294.199
292.122
290.823
298.567
297.929
295.391
292.59
290.974
299.034
298.84
295.478
292.441
290.932
290.193
292.984
291.794
290.722
290.106
291.846
291.23
290.484
290
291.26
290.814
290.273
289.9
290.896
290.518
290.104
289.815
290.644
290.308
289.976
289.749
290.454
290.156
289.88
289.697
290.266
290.038
289.803
289.657
289.936
289.913
289.743
289.623
289.248
289.361
289.601
289.746
289.696
289.598
289.211
289.314
289.498
289.647
289.652
289.578
289.179
289.271
289.453
289.595
289.617
289.562
289.169
289.254
289.433
289.566
289.589
289.546
289.184
289.277
289.447
289.552
289.567
289.532
289.254
289.341
289.47
289.544
289.55
289.521
289.377
289.427
289.503
289.543
289.539
289.519
289.472
289.498
289.533
289.55
289.544
289.535
289.538
289.549
289.564
289.571
289.573
289.575
289.58
289.587
289.597
289.605
289.613
289.62
290.313
290.307
290.301
290.294
290.286
290.32
290.314
290.308
290.301
290.294
290.308
290.302
290.296
290.29
290.283
289.976
289.981
289.983
289.98
289.963
290.039
290.048
290.046
290.028
289.983
290.184
290.177
290.146
290.092
290.009
290.434
290.377
290.286
290.171
290.037
290.838
290.674
290.478
290.27
290.076
291.467
291.115
290.749
290.403
290.134
292.446
291.812
291.163
290.609
290.226
293.929
292.968
291.829
290.94
290.368
295.855
294.672
292.856
291.431
290.563
297.586
296.535
294.154
292.016
290.774
298.566
297.86
295.189
292.401
290.901
299.035
298.82
295.19
292.286
290.858
292.954
291.695
290.657
290.066
291.855
291.17
290.433
289.968
291.268
290.777
290.235
289.876
290.901
290.495
290.079
289.8
290.646
290.293
289.959
289.739
290.454
290.147
289.869
289.692
290.262
290.033
289.797
289.653
289.924
289.907
289.74
289.621
289.259
289.372
289.599
289.737
289.692
289.596
289.223
289.325
289.495
289.635
289.646
289.576
289.186
289.282
289.449
289.581
289.609
289.559
289.174
289.263
289.428
289.552
289.581
289.544
289.19
289.285
289.439
289.539
289.56
289.529
289.26
289.345
289.462
289.533
289.544
289.519
289.372
289.422
289.493
289.534
289.535
289.517
289.462
289.488
289.524
289.543
289.54
289.534
289.526
289.538
289.555
289.565
289.569
289.575
289.567
289.576
289.587
289.597
289.607
289.617
290.33
290.323
290.315
290.307
290.298
290.338
290.331
290.324
290.316
290.307
290.325
290.318
290.31
290.302
290.295
290.005
290.009
290.006
289.996
289.969
290.089
290.095
290.085
290.054
289.99
290.267
290.25
290.202
290.124
290.016
290.564
290.482
290.358
290.204
290.043
291.026
290.816
290.565
290.3
290.08
291.72
291.298
290.849
290.43
290.135
292.754
292.039
291.264
290.634
290.223
294.236
293.185
291.91
290.953
290.356
296.055
294.793
292.871
291.404
290.536
297.634
296.503
294.043
291.915
290.723
298.556
297.779
294.945
292.25
290.834
299.035
298.8
294.932
292.15
290.792
292.924
291.61
290.603
291.867
291.122
290.394
289.95
291.283
290.751
290.211
289.866
290.913
290.483
290.066
289.796
290.656
290.289
289.954
289.74
290.463
290.149
289.869
289.695
290.267
290.038
289.8
289.658
289.918
289.908
289.744
289.625
289.271
289.382
289.598
289.733
289.694
289.599
289.235
289.335
289.495
289.628
289.644
289.579
289.195
289.292
289.447
289.572
289.605
289.561
289.179
289.272
289.425
289.541
289.576
289.545
289.196
289.292
289.433
289.529
289.555
289.53
289.265
289.348
289.455
289.524
289.54
289.519
289.368
289.418
289.485
289.527
289.532
289.518
289.453
289.48
289.515
289.537
289.539
289.536
289.514
289.528
289.547
289.56
289.567
289.575
289.556
289.565
289.578
289.59
289.602
289.614
290.348
290.34
290.331
290.321
290.311
290.357
290.349
290.34
290.33
290.321
290.343
290.334
290.325
290.316
290.306
290.036
290.038
290.031
290.012
289.974
290.14
290.142
290.124
290.078
289.996
290.349
290.321
290.255
290.151
290.022
290.684
290.58
290.423
290.229
290.049
291.193
290.943
290.639
290.321
290.084
291.937
291.455
290.923
290.45
290.136
293.005
292.214
291.329
290.651
290.219
294.47
293.332
291.947
290.955
290.344
296.19
294.847
292.837
291.372
290.509
297.648
296.444
293.894
291.829
290.679
298.538
297.694
294.704
292.126
290.778
299.035
298.783
294.719
292.039
290.738
292.899
291.542
290.562
291.884
291.088
290.37
291.306
290.739
290.2
289.868
290.935
290.483
290.064
289.802
290.676
290.296
289.958
289.749
290.481
290.16
289.877
289.705
290.279
290.051
289.81
289.668
289.917
289.915
289.754
289.635
289.282
289.392
289.6
289.732
289.7
289.608
289.247
289.345
289.497
289.624
289.646
289.586
289.204
289.301
289.447
289.565
289.603
289.566
289.185
289.28
289.423
289.533
289.573
289.548
289.202
289.299
289.429
289.521
289.551
289.532
289.27
289.35
289.45
289.517
289.537
289.521
289.366
289.415
289.478
289.521
289.531
289.52
289.445
289.473
289.508
289.532
289.538
289.538
289.505
289.52
289.539
289.555
289.565
289.576
289.544
289.555
289.569
289.583
289.597
289.61
290.367
290.358
290.347
290.335
290.323
290.376
290.367
290.357
290.346
290.334
290.361
290.351
290.34
290.329
290.318
290.069
290.067
290.056
290.027
289.98
290.191
290.189
290.162
290.1
290.003
290.427
290.389
290.304
290.173
290.03
290.794
290.668
290.48
290.248
290.056
291.339
291.053
290.699
290.336
290.088
292.118
291.584
290.976
290.465
290.138
293.204
292.342
291.37
290.66
290.216
294.639
293.414
291.963
290.95
290.333
296.265
294.849
292.789
291.338
290.487
297.635
296.366
293.74
291.754
290.643
298.513
297.608
294.489
292.026
290.735
299.034
298.77
294.554
291.953
290.7
292.882
291.494
290.537
291.908
291.07
290.358
291.337
290.739
290.2
290.966
290.494
290.072
289.816
290.705
290.314
289.971
289.764
290.507
290.18
289.892
289.721
290.296
290.071
289.827
289.683
289.92
289.927
289.77
289.649
289.292
289.401
289.603
289.736
289.71
289.62
289.259
289.355
289.5
289.623
289.65
289.595
289.214
289.31
289.447
289.561
289.603
289.572
289.192
289.288
289.423
289.527
289.571
289.552
289.209
289.304
289.425
289.514
289.549
289.535
289.274
289.352
289.445
289.511
289.535
289.524
289.363
289.412
289.472
289.515
289.53
289.523
289.439
289.467
289.502
289.528
289.538
289.54
289.496
289.512
289.533
289.55
289.563
289.577
289.534
289.545
289.56
289.575
289.591
289.607
290.387
290.376
290.364
290.35
290.336
290.397
290.387
290.374
290.362
290.348
290.381
290.369
290.356
290.343
290.33
290.103
290.098
290.08
290.042
289.986
290.242
290.235
290.198
290.118
290.011
290.501
290.452
290.348
290.191
290.039
290.892
290.748
290.528
290.262
290.063
291.465
291.146
290.744
290.349
290.094
292.267
291.684
291.013
290.476
290.141
293.356
292.422
291.398
290.666
290.215
294.751
293.449
291.967
290.943
290.326
296.292
294.814
292.738
291.306
290.47
297.602
296.267
293.607
291.692
290.617
298.484
297.525
294.311
291.948
290.706
299.033
298.76
294.434
291.889
290.677
292.876
291.465
290.525
291.94
291.067
290.358
291.376
290.752
290.21
291.004
290.516
290.088
290.741
290.339
289.99
289.785
290.539
290.208
289.913
289.742
290.316
290.099
289.848
289.703
289.926
289.943
289.789
289.666
289.303
289.41
289.608
289.741
289.723
289.635
289.271
289.365
289.504
289.624
289.656
289.607
289.225
289.32
289.449
289.559
289.605
289.581
289.199
289.296
289.423
289.523
289.569
289.558
289.215
289.31
289.423
289.509
289.547
289.539
289.278
289.353
289.441
289.506
289.533
289.527
289.362
289.409
289.467
289.511
289.529
289.526
289.433
289.462
289.497
289.524
289.537
289.542
289.488
289.505
289.526
289.545
289.56
289.577
289.524
289.536
289.551
289.568
289.585
289.601
290.409
290.396
290.381
290.365
290.349
290.42
290.407
290.393
290.378
290.363
290.402
290.388
290.373
290.358
290.343
290.139
290.129
290.105
290.055
289.993
290.295
290.28
290.232
290.134
290.02
290.572
290.512
290.389
290.206
290.048
290.983
290.818
290.569
290.273
290.072
291.574
291.224
290.777
290.361
290.102
292.389
291.76
291.037
290.485
290.146
293.467
292.468
291.416
290.669
290.217
294.81
293.457
291.962
290.935
290.323
296.283
294.755
292.688
291.28