/*--------------------------------*- C++ -*----------------------------------*\
| =========                 |                                                 |
| \\      /  F ield         | OpenFOAM: The Open Source CFD Toolbox           |
|  \\    /   O peration     | Version:  2.3.1                                 |
|   \\  /    A nd           | Web:      www.OpenFOAM.org                      |
|    \\/     M anipulation  |                                                 |
\*---------------------------------------------------------------------------*/
FoamFile
{
    version     2.0;
    format      ascii;
    class       volVectorField;
    location    "600";
    object      U;
}
// * * * * * * * * * * * * * * * * * * * * * * * * * * * * * * * * * * * * * //

dimensions      [0 1 -1 0 0 0 0];

internalField   nonuniform List<vector> 
6852
(
(-0.0433468 -0.0827721 0.0585731)
(-0.0150842 -0.0841644 0.058614)
(0.0160171 -0.0841152 0.0585791)
(0.04438 -0.0826879 0.0584738)
(0.0734546 -0.0804603 0.0584151)
(-0.0570551 -0.206544 0.0296316)
(-0.0204082 -0.207744 0.0283845)
(0.0218392 -0.207699 0.0284122)
(0.0585727 -0.206489 0.0296156)
(0.0965116 -0.205233 0.030628)
(-0.0553971 -0.249146 -0.025305)
(-0.0194912 -0.248812 -0.0274044)
(0.0211217 -0.24883 -0.0273115)
(0.0570908 -0.249202 -0.0252262)
(0.0941138 -0.250101 -0.0237983)
(-0.0499819 -0.171045 -0.0946045)
(-0.0170946 -0.170745 -0.0971165)
(0.0186846 -0.17087 -0.0968782)
(0.0517045 -0.171376 -0.0941807)
(0.0861765 -0.172471 -0.092463)
(-0.0510433 -0.0409933 -0.0847793)
(-0.0178439 -0.0409345 -0.0860774)
(0.0189516 -0.0414231 -0.0859687)
(0.0522939 -0.0423045 -0.0845445)
(0.0868304 -0.0434627 -0.0836546)
(-0.0484707 0.0690503 -0.0952761)
(-0.016979 0.0691935 -0.0967532)
(0.0168753 0.0686774 -0.0967817)
(0.0484851 0.0675625 -0.0953626)
(0.081802 0.0660445 -0.0942702)
(0.11635 0.0641822 -0.0936808)
(-0.048573 0.178841 -0.0848013)
(-0.0173427 0.17864 -0.0858809)
(0.0161614 0.178018 -0.0858834)
(0.0474863 0.177037 -0.084806)
(0.0802213 0.175476 -0.0840606)
(0.114248 0.173255 -0.0837516)
(-0.0479101 0.285877 -0.0779161)
(-0.0174253 0.285974 -0.0787223)
(0.0150372 0.285269 -0.0787144)
(0.0455716 0.283811 -0.0778839)
(0.077336 0.28141 -0.0774173)
(0.110465 0.277964 -0.0773647)
(-0.0468381 0.389435 -0.0712204)
(-0.0174082 0.389758 -0.0718656)
(0.0136566 0.388995 -0.0718489)
(0.0430716 0.387177 -0.0711561)
(0.0735331 0.384077 -0.0708452)
(0.105386 0.379581 -0.0709499)
(-0.0454811 0.486363 -0.0625666)
(-0.01734 0.486911 -0.0630649)
(0.0121163 0.486089 -0.0630197)
(0.0401583 0.483906 -0.0624089)
(0.0690161 0.480099 -0.062189)
(0.0992388 0.474553 -0.062389)
(-0.0437676 0.57783 -0.0518579)
(-0.017212 0.578565 -0.052219)
(0.0103416 0.577692 -0.0521385)
(0.0366994 0.57521 -0.0515923)
(0.0636337 0.570838 -0.0514554)
(0.0918611 0.564503 -0.0517675)
(-0.041987 0.650209 -0.0309697)
(-0.0171229 0.650946 -0.0311639)
(0.0084763 0.649933 -0.0310005)
(0.0330446 0.647134 -0.0304506)
(0.0579491 0.642269 -0.0302943)
(0.0840592 0.635305 -0.0305672)
(-0.0401682 0.689062 -0.00853142)
(-0.0172162 0.689808 -0.00873235)
(0.00630373 0.688597 -0.00854773)
(0.0289125 0.685365 -0.00799936)
(0.0516047 0.67989 -0.00779642)
(0.0753395 0.672208 -0.00801617)
(-0.0380673 0.695943 0.0106734)
(-0.017329 0.696712 0.0105442)
(0.0038189 0.695281 0.0107379)
(0.0241862 0.691592 0.01121)
(0.0444206 0.685533 0.011381)
(0.0655375 0.677261 0.0111523)
(-0.0357756 0.678289 0.0233603)
(-0.017524 0.67896 0.0233254)
(0.000968888 0.67731 0.0234876)
(0.0188563 0.67328 0.0237969)
(0.0364631 0.666807 0.0238668)
(0.0548363 0.658149 0.0236051)
(-0.0336188 0.645699 0.0293084)
(-0.0179865 0.646135 0.0293574)
(-0.00227927 0.644232 0.0294985)
(0.0130506 0.639924 0.0296795)
(0.0280296 0.633211 0.0296618)
(0.0437218 0.624423 0.0293589)
(-0.031822 0.605245 0.0304028)
(-0.0188308 0.605346 0.0305242)
(-0.0059026 0.603162 0.0306676)
(0.0068898 0.598625 0.0307686)
(0.0193167 0.591805 0.0306887)
(0.0324708 0.583037 0.0303572)
(-0.0305635 0.562768 0.0284463)
(-0.0201764 0.562441 0.0286307)
(-0.00989751 0.559892 0.0288008)
(0.000348319 0.555125 0.0288654)
(0.0103998 0.548213 0.0287428)
(0.0211894 0.539511 0.0284002)
(-0.0300044 0.522136 0.0248517)
(-0.0221695 0.521268 0.0250849)
(-0.0144263 0.518251 0.0252775)
(-0.00663026 0.513153 0.0253365)
(0.00119798 0.50607 0.0251914)
(0.00983747 0.497361 0.0248473)
(-0.0302888 0.485714 0.0206319)
(-0.0249749 0.48419 0.0208938)
(-0.0196921 0.480572 0.0210945)
(-0.014209 0.474971 0.021159)
(-0.00847265 0.467574 0.0210279)
(-0.00179039 0.458713 0.0206896)
(-0.0315384 0.454798 0.0164909)
(-0.0287752 0.4525 0.0167627)
(-0.025929 0.448115 0.0169584)
(-0.0226763 0.441807 0.0170134)
(-0.0188808 0.433835 0.016913)
(-0.0139486 0.424563 0.0166183)
(-0.0338641 0.429885 0.0128933)
(-0.0337766 0.42669 0.0131549)
(-0.0334194 0.42133 0.0133263)
(-0.0323725 0.414062 0.0133544)
(-0.0304114 0.405216 0.0132545)
(-0.0270486 0.395204 0.0130141)
(-0.0373772 0.410893 0.0101305)
(-0.0402158 0.406661 0.0103539)
(-0.0424978 0.400078 0.0104678)
(-0.0436934 0.391545 0.0104397)
(-0.0435073 0.381477 0.0103048)
(-0.0415517 0.370355 0.0100708)
(-0.0421987 0.397288 0.00839489)
(-0.0483681 0.391868 0.00853628)
(-0.0535535 0.383774 0.00853664)
(-0.0570926 0.373629 0.00840172)
(-0.0586522 0.361947 0.00817938)
(-0.0579557 0.34933 0.00789874)
(-0.0484593 0.388181 0.00783202)
(-0.0585489 0.381423 0.0078297)
(-0.067029 0.371488 0.00762809)
(-0.0730717 0.359348 0.00730699)
(-0.0763613 0.34563 0.00691621)
(-0.0767549 0.331128 0.00651957)
(-0.0562991 0.382223 0.00863404)
(-0.071131 0.374023 0.00839636)
(-0.0834385 0.361899 0.00784521)
(-0.0921833 0.347392 0.007213)
(-0.0971705 0.331227 0.0065275)
(-0.0984247 0.314497 0.00591461)
(-0.0864994 0.368098 0.0104018)
(-0.103315 0.353402 0.0092806)
(-0.114968 0.336173 0.00816573)
(-0.121571 0.317187 0.00700614)
(-0.123357 0.297977 0.00604278)
(-0.10516 0.361044 0.0143369)
(-0.12733 0.343566 0.0122073)
(-0.142018 0.323497 0.0103134)
(-0.15002 0.301538 0.00838391)
(-0.151828 0.279843 0.00687236)
(-0.127266 0.350586 0.0202441)
(-0.155774 0.330019 0.016584)
(-0.173518 0.307103 0.0136187)
(-0.182579 0.282202 0.0105739)
(-0.18373 0.258293 0.00829867)
(-0.153638 0.330613 0.030165)
(-0.189587 0.307905 0.0233705)
(-0.209899 0.283214 0.0185608)
(-0.219257 0.256329 0.0136902)
(-0.218696 0.231197 0.0102857)
(-0.182448 0.298805 0.0415273)
(-0.226825 0.27443 0.0308762)
(-0.249262 0.249143 0.0241228)
(-0.258265 0.221685 0.0170741)
(-0.25506 0.196829 0.0123945)
(-0.215986 0.243445 0.0626678)
(-0.269059 0.22258 0.0422756)
(-0.291306 0.20037 0.0316446)
(-0.298242 0.175838 0.0210199)
(-0.290951 0.153893 0.0145705)
(-0.245699 0.15734 0.0753353)
(-0.306089 0.147339 0.0488744)
(-0.328364 0.133445 0.0361076)
(-0.333087 0.117013 0.0230439)
(-0.321922 0.101564 0.015388)
(-0.27883 0.0657601 0.0815223)
(-0.335628 0.0657251 0.0522078)
(-0.355678 0.0604125 0.0377609)
(-0.357667 0.0534264 0.0232082)
(-0.34362 0.0459021 0.0146772)
(-0.311757 -0.0617597 0.0735027)
(-0.360254 -0.0369698 0.0457174)
(-0.375242 -0.0247056 0.0313178)
(-0.373597 -0.0173441 0.0172389)
(-0.357267 -0.0137665 0.00885695)
(-0.307081 -0.155257 0.0540011)
(-0.358614 -0.117927 0.0298716)
(-0.375293 -0.0930546 0.0176461)
(-0.374838 -0.0742038 0.00597625)
(-0.359797 -0.0612129 -0.000966913)
(-0.282221 -0.214562 0.0378354)
(-0.338646 -0.171431 0.0185914)
(-0.362194 -0.139078 0.0073713)
(-0.366616 -0.112698 -0.00251346)
(-0.355763 -0.0933794 -0.00840911)
(-0.246867 -0.215539 0.0189921)
(-0.307627 -0.180378 0.00866916)
(-0.339482 -0.151303 6.85262e-05)
(-0.351281 -0.125456 -0.00769713)
(-0.347245 -0.104639 -0.0125372)
(-0.211882 -0.171265 0.00877193)
(-0.276255 -0.15 0.00344316)
(-0.315213 -0.130444 -0.00328434)
(-0.333533 -0.111742 -0.0109515)
(-0.333275 -0.0970961 -0.0168597)
(-0.164478 -0.10189 -0.00581855)
(-0.227552 -0.0923751 -0.00720136)
(-0.268977 -0.0835319 -0.0114421)
(-0.29055 -0.0753804 -0.017162)
(-0.294984 -0.0690517 -0.0226486)
(-0.067482 -0.019683 -0.0111643)
(-0.109634 -0.0203622 -0.0102081)
(-0.141474 -0.0219276 -0.0117267)
(-0.16235 -0.0230208 -0.0145756)
(-0.17302 -0.023903 -0.0178993)
(-0.0556077 -0.0843821 0.156241)
(-0.0196341 -0.0861856 0.156063)
(0.0208509 -0.0862468 0.155963)
(0.0570145 -0.0845828 0.156009)
(0.0951092 -0.0825357 0.155901)
(-0.0624382 -0.185363 0.0730174)
(-0.0220431 -0.186943 0.0711696)
(0.0238697 -0.187042 0.0710764)
(0.0644133 -0.185684 0.0726887)
(0.106822 -0.184696 0.0735516)
(-0.055764 -0.217744 -0.0679984)
(-0.0189473 -0.21805 -0.0706089)
(0.021062 -0.218184 -0.0705972)
(0.0579946 -0.218134 -0.0681819)
(0.0963659 -0.218759 -0.0673271)
(-0.0437706 -0.139897 -0.237393)
(-0.014216 -0.14029 -0.239347)
(0.0159411 -0.140479 -0.239023)
(0.0457463 -0.140466 -0.236742)
(0.0768793 -0.141133 -0.236272)
(-0.0452128 -0.00530751 -0.214069)
(-0.0152064 -0.0057044 -0.214466)
(0.0161568 -0.00615655 -0.214296)
(0.0463772 -0.00662071 -0.213636)
(0.0773744 -0.00734554 -0.214137)
(-0.0442431 0.0898377 -0.220471)
(-0.0151339 0.0897599 -0.220974)
(0.0149517 0.0891739 -0.220933)
(0.0442377 0.0881079 -0.220366)
(0.0745677 0.0866025 -0.22066)
(-0.0443361 0.195236 -0.211022)
(-0.015502 0.195141 -0.211368)
(0.0141092 0.194441 -0.211315)
(0.0430706 0.193153 -0.21087)
(0.0730459 0.19122 -0.211199)
(0.104632 0.188635 -0.212349)
(-0.0439751 0.295636 -0.205212)
(-0.0157477 0.295783 -0.205447)
(0.0130169 0.295 -0.205375)
(0.0413022 0.293285 -0.204994)
(0.070571 0.290522 -0.20536)
(0.101502 0.28664 -0.206521)
(-0.0433513 0.398009 -0.199074)
(-0.0159692 0.398393 -0.199246)
(0.0117362 0.397573 -0.199147)
(0.0390851 0.395535 -0.198768)
(0.0673129 0.392058 -0.199114)
(0.0971945 0.387018 -0.200256)
(-0.0424678 0.497832 -0.189183)
(-0.016133 0.498506 -0.18924)
(0.0103211 0.497654 -0.189067)
(0.0364986 0.495238 -0.188635)
(0.0633935 0.490962 -0.188917)
(0.0918962 0.484667 -0.189995)
(-0.0412974 0.60176 -0.175569)
(-0.0162728 0.602758 -0.175449)
(0.00866347 0.601932 -0.175175)
(0.0333851 0.599239 -0.174708)
(0.058624 0.594321 -0.175001)
(0.0853906 0.58705 -0.176152)
(-0.0405286 0.694918 -0.133045)
(-0.0165945 0.695941 -0.132566)
(0.00704343 0.695015 -0.132038)
(0.0304925 0.692044 -0.131359)
(0.0542637 0.686578 -0.131443)
(0.0795103 0.678497 -0.132329)
(-0.0405532 0.758286 -0.0860112)
(-0.0175882 0.759377 -0.0858543)
(0.00507823 0.758316 -0.0852718)
(0.0274526 0.754939 -0.0843241)
(0.0498445 0.748748 -0.0840622)
(0.0735102 0.73966 -0.084629)
(-0.040651 0.797714 -0.0439645)
(-0.0187543 0.799029 -0.0438207)
(0.00280923 0.797876 -0.0431456)
(0.0240551 0.794067 -0.0420551)
(0.0450746 0.787139 -0.0416682)
(0.0671931 0.777123 -0.0421964)
(-0.0407588 0.819091 -0.0115203)
(-0.0200944 0.820417 -0.0112189)
(0.000184865 0.819041 -0.0104806)
(0.0202258 0.814758 -0.00940464)
(0.0398818 0.807211 -0.00912284)
(0.0605224 0.796558 -0.00986589)
(-0.0409086 0.827212 0.0114102)
(-0.0216359 0.828352 0.0119094)
(-0.00278708 0.82667 0.0126388)
(0.0159668 0.821864 0.0135551)
(0.034209 0.813828 0.0136328)
(0.0533987 0.802842 0.0126561)
(-0.0410726 0.825541 0.0256183)
(-0.0234034 0.826294 0.026313)
(-0.00622723 0.824174 0.0270291)
(0.0110502 0.81885 0.0277917)
(0.0277043 0.810386 0.0277064)
(0.0453295 0.799151 0.02657)
(-0.0413956 0.818061 0.0329432)
(-0.0255012 0.818296 0.0338551)
(-0.010147 0.81562 0.0346331)
(0.00544893 0.809721 0.0353098)
(0.0204395 0.800812 0.0351472)
(0.0364335 0.789337 0.0339526)
(-0.0420485 0.807624 0.0354787)
(-0.0280901 0.807172 0.0366188)
(-0.0146534 0.803772 0.0374947)
(-0.000938925 0.797209 0.0381246)
(0.0124022 0.787753 0.0379366)
(0.0267556 0.775971 0.0367829)
(-0.0432039 0.796307 0.0349112)
(-0.0313362 0.794992 0.0362437)
(-0.0199193 0.790706 0.0372154)
(-0.00819293 0.783339 0.037825)
(0.00347928 0.773187 0.0376424)
(0.0162443 0.76095 0.0365958)
(-0.0450118 0.785614 0.0325963)
(-0.0354062 0.783269 0.0340666)
(-0.0261377 0.777911 0.0351048)
(-0.0164367 0.769535 0.0356923)
(-0.00653526 0.758564 0.035537)
(0.00474941 0.74558 0.0346266)
(-0.0476187 0.776498 0.0296819)
(-0.0404931 0.77295 0.0312193)
(-0.0335312 0.766305 0.0322615)
(-0.0259397 0.756694 0.0327888)
(-0.0177769 0.744617 0.0326392)
(-0.00803017 0.730731 0.031877)
(-0.051175 0.769393 0.0271777)
(-0.0468285 0.764468 0.0286827)
(-0.0423854 0.756296 0.0296174)
(-0.0370074 0.745185 0.0299966)
(-0.0305993 0.731705 0.0297823)
(-0.0222849 0.716544 0.0291168)
(-0.0558429 0.764235 0.0260429)
(-0.0546946 0.757776 0.0273613)
(-0.0530609 0.747823 0.0279987)
(-0.0500295 0.734926 0.0280668)
(-0.0453912 0.719712 0.027644)
(-0.0384221 0.702924 0.0269601)
(-0.0617998 0.760498 0.0272714)
(-0.0644312 0.752386 0.0281639)
(-0.0660016 0.740398 0.0281868)
(-0.0654847 0.725427 0.027669)
(-0.0626221 0.708132 0.026786)
(-0.0568639 0.689366 0.0258805)
(-0.0692412 0.757004 0.0320855)
(-0.0764737 0.747233 0.0321604)
(-0.0817777 0.733008 0.0310215)
(-0.0839636 0.715739 0.0294624)
(-0.0828524 0.696058 0.027698)
(-0.0780896 0.675023 0.0262436)
(-0.078347 0.752168 0.0419298)
(-0.091319 0.740895 0.0405757)
(-0.101049 0.724255 0.0373784)
(-0.106126 0.704543 0.0340824)
(-0.106687 0.682241 0.0307867)
(-0.102588 0.658753 0.0283041)
(-0.109735 0.730418 0.0554917)
(-0.124792 0.711603 0.0485379)
(-0.132836 0.689718 0.0423402)
(-0.134843 0.66487 0.0364561)
(-0.130862 0.639042 0.0322406)
(-0.132121 0.713745 0.0783667)
(-0.153657 0.692798 0.0652098)
(-0.164655 0.669151 0.0546541)
(-0.167786 0.642014 0.0447898)
(-0.163183 0.614248 0.0379901)
(-0.160304 0.68213 0.115662)
(-0.189733 0.661711 0.0902317)
(-0.202871 0.638494 0.0724127)
(-0.20629 0.610631 0.0561095)
(-0.199813 0.582211 0.045479)
(-0.192161 0.636077 0.162267)
(-0.231205 0.616649 0.12005)
(-0.246104 0.595619 0.0934718)
(-0.249328 0.568729 0.0689293)
(-0.239888 0.541329 0.0536851)
(-0.233923 0.553457 0.243284)
(-0.283729 0.54657 0.162223)
(-0.296347 0.533782 0.120638)
(-0.297322 0.512926 0.0833907)
(-0.282869 0.489736 0.0620883)
(-0.273107 0.43196 0.295311)
(-0.33365 0.449854 0.190673)
(-0.345765 0.451378 0.13972)
(-0.34474 0.442573 0.0931103)
(-0.325403 0.427198 0.0672578)
(-0.317512 0.306942 0.316322)
(-0.381288 0.344589 0.203703)
(-0.392355 0.359239 0.147652)
(-0.38848 0.363522 0.0963191)
(-0.364971 0.357322 0.0677789)
(-0.375397 0.173026 0.310529)
(-0.431476 0.231209 0.199558)
(-0.437506 0.261184 0.142035)
(-0.428613 0.279256 0.090641)
(-0.401125 0.28323 0.0615928)
(-0.432003 0.0307816 0.268454)
(-0.475998 0.115608 0.172984)
(-0.475632 0.161774 0.120074)
(-0.46213 0.193173 0.0738518)
(-0.431961 0.207476 0.0470697)
(-0.468504 -0.106722 0.195863)
(-0.507393 -0.00292969 0.129216)
(-0.503521 0.0640943 0.0876067)
(-0.486124 0.108599 0.0491898)
(-0.454095 0.132722 0.0260184)
(-0.459784 -0.153128 0.0919944)
(-0.502369 -0.0735462 0.0591607)
(-0.507235 -0.0112436 0.0366151)
(-0.491319 0.0366145 0.0145129)
(-0.460485 0.0635803 -0.00204164)
(-0.434386 -0.140414 0.0394225)
(-0.481535 -0.0915894 0.0143012)
(-0.493775 -0.0496878 -0.00528305)
(-0.482798 -0.0137078 -0.0210561)
(-0.457113 0.0147263 -0.0308459)
(-0.374381 -0.100536 -0.00776931)
(-0.426962 -0.0745163 -0.0233953)
(-0.450267 -0.050292 -0.037964)
(-0.450882 -0.0287408 -0.0499746)
(-0.434068 -0.0123662 -0.0578913)
(-0.224102 -0.0321016 -0.0132829)
(-0.280223 -0.0290447 -0.0262005)
(-0.313337 -0.0255381 -0.0406756)
(-0.327003 -0.0207684 -0.0536302)
(-0.325086 -0.0160988 -0.0638859)
(-0.0589352 -0.0550584 0.226866)
(-0.0208685 -0.0570236 0.226558)
(0.0224387 -0.0572083 0.22653)
(0.0607688 -0.0555669 0.226868)
(0.101312 -0.0535643 0.226502)
(-0.0630726 -0.130683 0.0940557)
(-0.0219873 -0.132862 0.0915501)
(0.024595 -0.133168 0.0914697)
(0.0658424 -0.131564 0.0937515)
(0.109283 -0.130104 0.0946527)
(-0.0527097 -0.166089 -0.120849)
(-0.0173554 -0.167262 -0.124246)
(0.0206549 -0.167599 -0.124251)
(0.0560568 -0.167064 -0.12116)
(0.0930239 -0.166937 -0.120114)
(-0.0338249 -0.108996 -0.384201)
(-0.0103729 -0.10999 -0.385546)
(0.0122952 -0.110303 -0.385222)
(0.0360582 -0.109973 -0.383525)
(0.0610652 -0.110197 -0.383842)
(-0.0356482 0.0144791 -0.343516)
(-0.0115946 0.0138134 -0.34304)
(0.0124488 0.0133692 -0.342815)
(0.0367407 0.0131361 -0.342898)
(0.0617332 0.0128229 -0.344267)
(-0.0355762 0.0901409 -0.3444)
(-0.0119569 0.0897957 -0.34416)
(0.0116499 0.0892078 -0.344062)
(0.035447 0.08837 -0.344124)
(0.0601457 0.0871424 -0.345173)
(-0.0360282 0.183903 -0.333989)
(-0.0124956 0.183684 -0.333804)
(0.0110148 0.183006 -0.333704)
(0.0346503 0.181854 -0.333695)
(0.0591219 0.180045 -0.334562)
(-0.0358713 0.269449 -0.327494)
(-0.0128267 0.269599 -0.327321)
(0.0100796 0.268859 -0.327202)
(0.0331328 0.2672 -0.327133)
(0.0569695 0.264428 -0.327882)
(0.0824599 0.260448 -0.329576)
(-0.0353204 0.360702 -0.32152)
(-0.0130656 0.361234 -0.321338)
(0.00892209 0.360511 -0.321181)
(0.0310669 0.358496 -0.321037)
(0.0538683 0.354934 -0.321668)
(0.0782865 0.349674 -0.323236)
(-0.0343096 0.449964 -0.311983)
(-0.0131157 0.450924 -0.311672)
(0.00762689 0.450212 -0.311399)
(0.0285379 0.447775 -0.311121)
(0.0499387 0.443305 -0.311596)
(0.0729217 0.43662 -0.312984)
(-0.0327133 0.552954 -0.299745)
(-0.0130284 0.554557 -0.29912)
(0.0059734 0.554016 -0.298666)
(0.025167 0.551329 -0.298302)
(0.0446256 0.54615 -0.298792)
(0.0656311 0.538394 -0.300275)
(-0.0314807 0.647275 -0.229815)
(-0.0129609 0.648843 -0.228279)
(0.00441112 0.648201 -0.227273)
(0.0220555 0.645257 -0.226513)
(0.039817 0.639508 -0.226654)
(0.0591966 0.630856 -0.227638)
(-0.0323357 0.696852 -0.155159)
(-0.0146362 0.698669 -0.154514)
(0.00200204 0.698039 -0.153428)
(0.0185327 0.694695 -0.152056)
(0.0346528 0.688058 -0.151421)
(0.0520248 0.678078 -0.151666)
(-0.0329882 0.721861 -0.0929162)
(-0.0163643 0.724601 -0.09209)
(-0.000866344 0.724238 -0.0907676)
(0.014358 0.720511 -0.0890914)
(0.0288028 0.712909 -0.0882186)
(0.0441887 0.70161 -0.0883935)
(-0.0334785 0.73278 -0.0480258)
(-0.0182411 0.736058 -0.0469591)
(-0.00422253 0.735821 -0.0455365)
(0.00956404 0.731772 -0.0437928)
(0.0223966 0.723429 -0.0429135)
(0.0359945 0.711162 -0.0432595)
(-0.0340925 0.737871 -0.0170794)
(-0.0204287 0.741396 -0.0156837)
(-0.00798178 0.741245 -0.0141398)
(0.00440029 0.737141 -0.0123216)
(0.0158521 0.728419 -0.0114561)
(0.0279435 0.715523 -0.0120478)
(-0.0350946 0.742337 0.00303322)
(-0.0229306 0.745941 0.0048613)
(-0.0119233 0.745589 0.00657116)
(-0.000894086 0.74119 0.00837032)
(0.00942839 0.732108 0.0091185)
(0.020366 0.718925 0.00823126)
(-0.036396 0.74579 0.0143876)
(-0.0257474 0.749093 0.016641)
(-0.0162093 0.748453 0.0185622)
(-0.00660251 0.743708 0.0203362)
(0.00255784 0.734254 0.0209774)
(0.0124266 0.720774 0.0198867)
(-0.0380326 0.749576 0.0192988)
(-0.0290332 0.752426 0.0219923)
(-0.0210702 0.751285 0.0241428)
(-0.0129275 0.745962 0.0258928)
(-0.00498664 0.736041 0.0264512)
(0.00389767 0.722114 0.0252852)
(-0.0401915 0.754183 0.0200352)
(-0.0330071 0.756385 0.0231268)
(-0.0267236 0.754511 0.0254978)
(-0.0201116 0.748366 0.0272342)
(-0.0133673 0.737728 0.0277249)
(-0.00548144 0.723298 0.0266083)
(-0.043025 0.760038 0.0185074)
(-0.0378664 0.761398 0.021931)
(-0.0333972 0.758519 0.0244758)
(-0.0283888 0.751264 0.0261902)
(-0.0228582 0.739629 0.0266188)
(-0.0159011 0.724389 0.0255876)
(-0.0466895 0.767553 0.0163393)
(-0.0438309 0.767835 0.0200001)
(-0.0413579 0.763609 0.022614)
(-0.0380424 0.75489 0.0242358)
(-0.0337398 0.741904 0.0245841)
(-0.0276783 0.725515 0.0236311)
(-0.0513625 0.77708 0.0150188)
(-0.0511701 0.775974 0.0187391)
(-0.0509318 0.769965 0.0212258)
(-0.0494122 0.759343 0.0225981)
(-0.0463518 0.74457 0.0227595)
(-0.0411306 0.726622 0.021837)
(-0.0572605 0.788889 0.0160012)
(-0.060228 0.785986 0.0194769)
(-0.0625302 0.777636 0.0215016)
(-0.0629205 0.764578 0.0223417)
(-0.0610997 0.747486 0.0220867)
(-0.0566266 0.727501 0.0210369)
(-0.064644 0.803184 0.0207811)
(-0.071436 0.797954 0.0235836)
(-0.0766738 0.786531 0.0245987)
(-0.0790878 0.770383 0.0244409)
(-0.0784693 0.750332 0.0233687)
(-0.0745806 0.727772 0.0218948)
(-0.073835 0.81975 0.0312832)
(-0.0853974 0.811598 0.0327395)
(-0.0940803 0.796196 0.0318076)
(-0.0985899 0.776235 0.0298916)
(-0.0990596 0.752506 0.0273339)
(-0.0954649 0.726821 0.0249489)
(-0.0851673 0.838498 0.0498676)
(-0.102847 0.826727 0.0489071)
(-0.115624 0.806026 0.0444951)
(-0.122205 0.781389 0.0396753)
(-0.123537 0.753144 0.0346038)
(-0.119761 0.723802 0.0305897)
(-0.0991707 0.856598 0.0808727)
(-0.125167 0.841041 0.0756037)
(-0.142876 0.81386 0.0647524)
(-0.151133 0.784065 0.0551087)
(-0.152815 0.750681 0.0458278)
(-0.148021 0.717421 0.0391088)
(-0.153165 0.855444 0.115034)
(-0.176921 0.818659 0.0935651)
(-0.186116 0.782846 0.0768111)
(-0.187491 0.743488 0.061113)
(-0.180515 0.706245 0.0504044)
(-0.191781 0.856408 0.179363)
(-0.222911 0.811609 0.135933)
(-0.229862 0.772022 0.107273)
(-0.229165 0.727867 0.0810389)
(-0.217797 0.687851 0.0643902)
(-0.23665 0.856161 0.256263)
(-0.27719 0.793568 0.184385)
(-0.279785 0.750257 0.142433)
(-0.276269 0.701749 0.102995)
(-0.258686 0.660487 0.0793688)
(-0.309244 0.79013 0.403868)
(-0.360773 0.738591 0.25451)
(-0.343008 0.703005 0.188583)
(-0.331866 0.658804 0.127602)
(-0.303541 0.620913 0.0946506)
(-0.366289 0.642635 0.486125)
(-0.429308 0.639041 0.297555)
(-0.400733 0.624444 0.219181)
(-0.384498 0.596679 0.143932)
(-0.346951 0.567898 0.1046)
(-0.417041 0.49109 0.521741)
(-0.485277 0.527424 0.317763)
(-0.452432 0.532183 0.231881)
(-0.431064 0.523323 0.149902)
(-0.386694 0.505615 0.107089)
(-0.480424 0.338787 0.516717)
(-0.539215 0.407137 0.313924)
(-0.500558 0.43204 0.225644)
(-0.471856 0.442514 0.143939)
(-0.422131 0.437217 0.100759)
(-0.548205 0.180409 0.459522)
(-0.585495 0.28225 0.28007)
(-0.539745 0.328754 0.198616)
(-0.503738 0.357914 0.125157)
(-0.450979 0.365518 0.0856297)
(-0.599823 -0.0084795 0.355539)
(-0.616878 0.147151 0.225429)
(-0.567039 0.222151 0.15818)
(-0.525278 0.271352 0.0979238)
(-0.471996 0.292181 0.0646546)
(-0.567829 -0.0949845 0.167858)
(-0.588317 0.0506951 0.126332)
(-0.562496 0.136097 0.0935957)
(-0.527177 0.193831 0.0587915)
(-0.480872 0.222501 0.0358985)
(-0.539414 -0.0733593 0.0930686)
(-0.56676 0.0155299 0.063621)
(-0.552746 0.0813996 0.0409192)
(-0.523092 0.129298 0.0186718)
(-0.482237 0.155054 0.00247565)
(-0.479133 -0.0633579 0.0146955)
(-0.516936 -0.0119333 -0.00133065)
(-0.520171 0.0301723 -0.0125064)
(-0.501047 0.063602 -0.0243071)
(-0.46929 0.0852524 -0.032996)
(-0.307015 -0.02636 -0.00606215)
(-0.360524 -0.0161299 -0.0241511)
(-0.388924 -0.0043961 -0.0386551)
(-0.395049 0.00893912 -0.0501537)
(-0.383453 0.0200044 -0.0585664)
(-0.058511 -0.0124859 0.248523)
(-0.0205878 -0.0142148 0.248992)
(0.0229664 -0.0143892 0.249112)
(0.0612131 -0.0129443 0.248982)
(0.101615 -0.0111104 0.247434)
(-0.0643296 -0.0320972 0.109098)
(-0.0221862 -0.0357001 0.106303)
(0.0267319 -0.0361929 0.10609)
(0.0689661 -0.0335252 0.108507)
(0.113553 -0.030261 0.109197)
(-0.0527515 -0.0885605 -0.147183)
(-0.0168485 -0.0910288 -0.151193)
(0.0225733 -0.0916291 -0.151271)
(0.0582968 -0.0903012 -0.14776)
(0.0953783 -0.0889676 -0.146456)
(-0.0252552 -0.0759895 -0.498553)
(-0.00726354 -0.0776462 -0.499791)
(0.00943007 -0.0781151 -0.499593)
(0.0277655 -0.0774547 -0.498206)
(0.0472257 -0.0771204 -0.498636)
(-0.0275049 0.0306703 -0.449631)
(-0.00873441 0.0296013 -0.449049)
(0.00958942 0.0291424 -0.448856)
(0.0285867 0.029249 -0.449085)
(0.0479825 0.0294721 -0.450474)
(-0.0279131 0.0829569 -0.446309)
(-0.00931298 0.0824292 -0.445945)
(0.00897245 0.0818564 -0.445843)
(0.0277288 0.0812135 -0.446008)
(0.0470759 0.080299 -0.447055)
(-0.0285154 0.162274 -0.435765)
(-0.00989188 0.162016 -0.435448)
(0.00847917 0.161408 -0.435345)
(0.0271719 0.16042 -0.435451)
(0.0463993 0.158849 -0.436343)
(-0.028405 0.230429 -0.429607)
(-0.0101921 0.230638 -0.429314)
(0.00768587 0.230006 -0.429188)
(0.0258599 0.228494 -0.42922)
(0.0445322 0.225923 -0.429971)
(-0.0277973 0.308604 -0.425919)
(-0.0103378 0.309316 -0.425608)
(0.00667236 0.308766 -0.425431)
(0.0239578 0.306929 -0.425369)
(0.0416225 0.303589 -0.425978)
(-0.0265258 0.385521 -0.420766)
(-0.0101381 0.386739 -0.420282)
(0.00556177 0.386238 -0.419969)
(0.021561 0.383984 -0.419751)
(0.0377887 0.37972 -0.420164)
(0.0555429 0.373285 -0.421296)
(-0.0241375 0.487402 -0.420132)
(-0.00959095 0.489792 -0.419108)
(0.00394774 0.489691 -0.418527)
(0.0178457 0.487274 -0.41823)
(0.0317129 0.482267 -0.418742)
(0.0472201 0.474764 -0.420021)
(-0.0213363 0.587497 -0.307931)
(-0.00824137 0.589746 -0.304701)
(0.00260624 0.589486 -0.303144)
(0.0142596 0.586804 -0.302336)
(0.0259408 0.581167 -0.302418)
(0.039748 0.572669 -0.30285)
(-0.024231 0.601489 -0.195613)
(-0.0116925 0.604897 -0.196575)
(-0.00116845 0.605148 -0.19536)
(0.00905166 0.602086 -0.193038)
(0.018241 0.595308 -0.191099)
(0.0288716 0.585225 -0.189565)
(-0.0251954 0.593179 -0.109951)
(-0.0142729 0.599343 -0.10999)
(-0.00566913 0.600796 -0.108149)
(0.00238786 0.597644 -0.105301)
(0.00897886 0.589793 -0.103178)
(0.0165529 0.578214 -0.101917)
(-0.025807 0.578725 -0.0564036)
(-0.0170226 0.586231 -0.0552378)
(-0.0106709 0.588561 -0.053201)
(-0.00481561 0.585595 -0.0509113)
(-0.000514417 0.577058 -0.0498346)
(0.00437546 0.564451 -0.0499235)
(-0.0266498 0.568285 -0.0240621)
(-0.0201075 0.576713 -0.0223635)
(-0.0159255 0.579757 -0.020495)
(-0.0120783 0.577051 -0.0188019)
(-0.00971675 0.568292 -0.0183224)
(-0.0071674 0.555165 -0.0191662)
(-0.0278744 0.562236 -0.00590598)
(-0.0236436 0.571455 -0.0035041)
(-0.0216906 0.574453 -0.00144114)
(-0.0200227 0.571297 0.000185722)
(-0.0196505 0.561821 0.000527641)
(-0.0192854 0.547823 -0.000655048)
(-0.029832 0.562185 0.00384309)
(-0.0280104 0.570962 0.00720152)
(-0.0282749 0.57367 0.0096414)
(-0.0287839 0.570011 0.0113342)
(-0.0302463 0.560047 0.011574)
(-0.0317012 0.545598 0.0101564)
(-0.0326214 0.567501 0.00778956)
(-0.033345 0.575668 0.0119319)
(-0.0358567 0.577768 0.0147545)
(-0.0384391 0.573406 0.0165264)
(-0.0415186 0.562923 0.0166718)
(-0.0444014 0.548107 0.0150928)
(-0.0363809 0.577539 0.00795689)
(-0.0398373 0.584893 0.012728)
(-0.0445963 0.586079 0.0159048)
(-0.0491375 0.580749 0.0177592)
(-0.053639 0.569547 0.0178726)
(-0.0576254 0.554232 0.0162617)
(-0.0412525 0.591535 0.00611379)
(-0.0476558 0.5979 0.0113795)
(-0.0547177 0.597791 0.0148484)
(-0.0611387 0.591116 0.0167634)
(-0.0669074 0.578841 0.016892)
(-0.0717367 0.562726 0.0153997)
(-0.0474902 0.609148 0.0037454)
(-0.0570413 0.614261 0.00937033)
(-0.0665346 0.612337 0.0130298)
(-0.0747925 0.603807 0.0149447)
(-0.0816958 0.589962 0.0151041)
(-0.0871354 0.572618 0.0138316)
(-0.0553768 0.630367 0.00214038)
(-0.0683656 0.633912 0.00800588)
(-0.0804569 0.629468 0.011691)
(-0.0905234 0.618403 0.013481)
(-0.0984242 0.602345 0.013618)
(-0.104224 0.583225 0.0125929)
(-0.0651563 0.656136 0.00271054)
(-0.0820955 0.657123 0.00861444)
(-0.0969961 0.649185 0.0120191)
(-0.108835 0.6347 0.0134373)
(-0.117553 0.615612 0.0133774)
(-0.1234 0.594062 0.0125064)
(-0.0770972 0.687535 0.00722518)
(-0.098734 0.684557 0.0127338)
(-0.116773 0.671723 0.015282)
(-0.13031 0.652652 0.0158675)
(-0.139578 0.629489 0.0152368)
(-0.145046 0.604735 0.0142525)
(-0.0915495 0.725188 0.0182038)
(-0.119047 0.716827 0.0225042)
(-0.140674 0.697183 0.0230808)
(-0.155696 0.672097 0.0219785)
(-0.16509 0.643587 0.0200526)
(-0.169555 0.614776 0.0184246)
(-0.10891 0.771388 0.0390374)
(-0.144003 0.755602 0.04071)
(-0.169749 0.726038 0.0372911)
(-0.185799 0.692987 0.0330874)
(-0.194698 0.657443 0.0286331)
(-0.197269 0.623609 0.0254926)
(-0.130082 0.82417 0.0771159)
(-0.175777 0.799319 0.0732707)
(-0.206314 0.756433 0.0612667)
(-0.222117 0.713842 0.0512544)
(-0.229414 0.669675 0.0419802)
(-0.228652 0.630118 0.0358935)
(-0.154937 0.892524 0.138098)
(-0.215187 0.855192 0.124739)
(-0.251453 0.78987 0.096965)
(-0.265093 0.734648 0.077713)
(-0.26961 0.679205 0.0604316)
(-0.263692 0.633168 0.0495974)
(-0.272232 0.899284 0.224387)
(-0.315339 0.812182 0.155183)
(-0.319346 0.747168 0.11784)
(-0.317923 0.681147 0.0855093)
(-0.303165 0.62984 0.0668489)
(-0.334535 0.975835 0.353486)
(-0.387315 0.832068 0.224441)
(-0.378052 0.75343 0.16609)
(-0.37063 0.674088 0.113763)
(-0.344703 0.618487 0.0855399)
(-0.454698 0.931808 0.751567)
(-0.521967 0.797102 0.35263)
(-0.457766 0.72506 0.242315)
(-0.435669 0.646986 0.148775)
(-0.39004 0.593775 0.105856)
(-0.525083 0.752111 0.926779)
(-0.603311 0.69731 0.425535)
(-0.516935 0.652479 0.290878)
(-0.488416 0.59603 0.17187)
(-0.429199 0.553502 0.119139)
(-0.577901 0.590574 0.987794)
(-0.659975 0.591833 0.460482)
(-0.564648 0.567805 0.311681)
(-0.52932 0.534365 0.181327)
(-0.461522 0.503959 0.123118)
(-0.639299 0.424347 0.975484)
(-0.708613 0.472859 0.458405)
(-0.605466 0.472834 0.305672)
(-0.560852 0.46373 0.175797)
(-0.487476 0.447413 0.116779)
(-0.698105 0.247785 0.889267)
(-0.740331 0.345249 0.413642)
(-0.632424 0.372358 0.271477)
(-0.579713 0.387622 0.154241)
(-0.504958 0.386404 0.100136)
(-0.740761 0.0053247 0.727173)
(-0.752259 0.194925 0.334822)
(-0.645516 0.261169 0.217258)
(-0.586911 0.306095 0.121695)
(-0.514298 0.321797 0.076823)
(-0.654181 -0.11389 0.26793)
(-0.666627 0.0852014 0.177405)
(-0.613069 0.172478 0.124073)
(-0.567073 0.232454 0.0753598)
(-0.509566 0.258857 0.0477809)
(-0.603491 -0.047187 0.156082)
(-0.621493 0.0594745 0.102245)
(-0.589443 0.124158 0.069642)
(-0.550427 0.172323 0.0418738)
(-0.502355 0.198296 0.0249608)
(-0.519874 -0.05089 0.0637138)
(-0.554683 0.0196384 0.0446808)
(-0.54772 0.0679761 0.0311781)
(-0.522302 0.104124 0.0179753)
(-0.485095 0.125365 0.00859055)
(-0.340396 -0.0188102 0.0482944)
(-0.39746 -0.00270946 0.0334001)
(-0.422492 0.0140846 0.0218273)
(-0.422062 0.0305857 0.0120253)
(-0.404755 0.0428979 0.00553716)
(-0.0547731 0.0274323 0.187863)
(-0.0187475 0.0266433 0.189378)
(0.0225123 0.026521 0.189641)
(0.0588584 0.0271533 0.188722)
(0.0971886 0.0280287 0.185559)
(-0.0609511 0.0789362 0.0986507)
(-0.0205127 0.076756 0.0988214)
(0.0268377 0.0767117 0.0989162)
(0.0674689 0.078719 0.0990449)
(0.110686 0.0812766 0.0972319)
(-0.0531894 0.0139716 -0.095989)
(-0.0162489 0.0102489 -0.101943)
(0.0248861 0.00958875 -0.102491)
(0.0615092 0.011995 -0.0979572)
(0.0997749 0.0142636 -0.0952299)
(-0.0177593 -0.0409751 -0.569115)
(-0.00468905 -0.0431688 -0.570991)