/*--------------------------------*- C++ -*----------------------------------*\
| =========                 |                                                 |
| \\      /  F ield         | OpenFOAM: The Open Source CFD Toolbox           |
|  \\    /   O peration     | Version:  2.3.1                                 |
|   \\  /    A nd           | Web:      www.OpenFOAM.org                      |
|    \\/     M anipulation  |                                                 |
\*---------------------------------------------------------------------------*/
FoamFile
{
    version     2.0;
    format      ascii;
    class       volScalarField;
    location    "600";
    object      alphat;
}
// * * * * * * * * * * * * * * * * * * * * * * * * * * * * * * * * * * * * * //

dimensions      [0 2 -1 0 0 0 0];

internalField   nonuniform List<scalar> 
6852
(
0.00465411
0.00491858
0.00523132
0.00558292
0.00596185
0.00634198
0.00221091
0.00230847
0.00242794
0.0025677
0.00272829
0.0029065
0.00208445
0.00215959
0.00225237
0.00236382
0.0024987
0.00266647
0.00189383
0.00195045
0.00202005
0.00210256
0.00220259
0.00232877
0.00184036
0.00190004
0.00197071
0.00204992
0.00213975
0.00224127
0.00210859
0.00217685
0.00225691
0.00235077
0.00245539
0.00234749
0.00240802
0.00248196
0.00257154
0.0026743
0.002621
0.00267101
0.00273457
0.00281435
0.00290993
0.00292755
0.00296656
0.00301782
0.00308415
0.00316749
0.00326542
0.00329282
0.00333015
0.00337991
0.00344615
0.00364099
0.00365595
0.00367765
0.00370781
0.0037526
0.00406751
0.00407
0.00407586
0.00408656
0.00411085
0.0045337
0.00452209
0.00450981
0.00449864
0.00449972
0.00500611
0.00497875
0.00494643
0.00491144
0.00488605
0.00541622
0.00537684
0.00532989
0.00527342
0.0052207
0.00569799
0.00564513
0.00558224
0.00551088
0.00543629
0.00584115
0.00577502
0.00569685
0.00560952
0.00551306
0.0058534
0.00577513
0.00568337
0.00558115
0.00546525
0.00575562
0.00566674
0.00556347
0.00544843
0.0053166
0.00557552
0.00547736
0.00536444
0.00523875
0.00509448
0.00534269
0.00523579
0.00511379
0.00497911
0.0048252
0.0050812
0.00496631
0.00483708
0.00469365
0.00453091
0.00481131
0.00468739
0.00455016
0.0043992
0.00423008
0.00454718
0.00441263
0.00426605
0.00410672
0.00393142
0.0042973
0.00415029
0.00399278
0.0038242
0.00364302
0.00406553
0.00390439
0.00373463
0.00355639
0.00337017
0.0038525
0.00367612
0.00349362
0.00330626
0.00311674
0.00365703
0.00346539
0.00327088
0.00307622
0.00288599
0.00347776
0.00327232
0.00306802
0.00286899
0.00268086
0.00331459
0.00309845
0.00288788
0.00268787
0.00250388
0.00316984
0.0029474
0.00273459
0.00253636
0.00235689
0.00304969
0.0028253
0.00261336
0.00241801
0.00224187
0.00296173
0.00273883
0.0025292
0.00233622
0.00216163
0.00291347
0.00269183
0.00248289
0.00228978
0.00211418
0.00289528
0.00266891
0.00245477
0.00225612
0.0020744
0.00285835
0.00262593
0.00240333
0.00219706
0.0020094
0.00278001
0.00254708
0.00232778
0.00212396
0.00193641
0.00266252
0.00244599
0.00223853
0.00204356
0.00186264
0.00254071
0.00234194
0.00214823
0.00196439
0.00179286
0.00248572
0.0022988
0.00211101
0.00192929
0.0017582
0.00554239
0.0051379
0.00470481
0.00426951
0.0038492
0.00210802
0.00221288
0.00233902
0.00248507
0.00264823
0.00231327
0.00229067
0.00226251
0.00222713
0.00218743
0.0021464
0.00270714
0.00267981
0.00264047
0.00258784
0.00251863
0.00243099
0.00282011
0.00277815
0.00271585
0.00263058
0.00251687
0.00239235
0.00437034
0.00425157
0.00409196
0.00387779
0.00357414
0.0031687
0.00648032
0.00635028
0.00616502
0.00591053
0.00550244
0.00488827
0.00785232
0.00765666
0.00737932
0.00690964
0.0061755
0.00869094
0.00849346
0.00821055
0.00772075
0.00693998
0.00901298
0.00881952
0.00854347
0.00806546
0.0072885
0.00886328
0.00867835
0.00841828
0.00797686
0.00724245
0.00818842
0.00801336
0.00777144
0.00737362
0.00670756
0.00709868
0.00694371
0.00673308
0.00639578
0.00583496
0.00599779
0.0058733
0.00570644
0.00544327
0.00501088
0.00506498
0.00497343
0.00485161
0.00465913
0.00434346
0.00422152
0.00420123
0.00417474
0.00406
0.00383631
0.00355655
0.00354726
0.00353681
0.00349133
0.00336312
0.00320995
0.00319615
0.00317921
0.00314132
0.00304982
0.00305506
0.0030362
0.0030124
0.00297207
0.00289634
0.00299469
0.00297145
0.00294216
0.00289888
0.00283109
0.00297602
0.00294926
0.00291584
0.00287019
0.0028066
0.00297328
0.00294384
0.00290744
0.00285996
0.0027985
0.00297562
0.00294403
0.00290538
0.00285635
0.0027957
0.00297959
0.00294636
0.00290559
0.00285497
0.00279394
0.00298448
0.00295017
0.00290792
0.00285476
0.00279238
0.00299115
0.00295566
0.00291184
0.00285694
0.00279192
0.00300041
0.00296356
0.0029178
0.00286064
0.00279329
0.00301263
0.00297425
0.00292625
0.00286642
0.00279644
0.00302758
0.0029877
0.00293732
0.00287469
0.00280212
0.0030448
0.00300357
0.00295099
0.00288581
0.0028112
0.00306324
0.00302124
0.00296716
0.00290034
0.00282509
0.00308191
0.00304016
0.00298605
0.00291954
0.00284653
0.00309832
0.00305951
0.00300862
0.00294658
0.00288147
0.00311139
0.00308104
0.00303982
0.00299004
0.00294248
0.00312185
0.00311037
0.00309068
0.00306618
0.0030485
0.00315337
0.00317691
0.00319232
0.00319863
0.00319986
0.00324863
0.00330998
0.00333492
0.00334179
0.00334809
0.00337959
0.00341552
0.00343386
0.00344416
0.00345352
0.00337122
0.00340692
0.00343837
0.00346848
0.00349741
0.00323908
0.00331103
0.00337716
0.00343694
0.00348841
0.00272846
0.00288003
0.00297718
0.00306491
0.00314185
0.00261878
0.0024112
0.0022039
0.00201024
0.00183409
0.00214096
0.0022425
0.00236662
0.00251408
0.00268336
0.0023789
0.00235594
0.00232581
0.00228589
0.00223661
0.00233198
0.00232053
0.00230452
0.00229053
0.00227683
0.00226331
0.00195492
0.00193197
0.00189673
0.00184929
0.00179435
0.00176417
0.00376953
0.00364691
0.00347864
0.00322386
0.00285519
0.00230594
0.00728297
0.00716635
0.00697688
0.0066667
0.0060544
0.00490805
0.010275
0.0101702
0.00998514
0.0096601
0.00891366
0.00740512
0.0120347
0.0118345
0.011482
0.0106516
0.00895501
0.0129595
0.012729
0.0123395
0.011463
0.00968544
0.0128203
0.0125534
0.0121289
0.0112542
0.00952149
0.0111604
0.0108463
0.0103803
0.00950711
0.00792677
0.00918112
0.00887455
0.00843589
0.00759993
0.00611709
0.0078171
0.00753594
0.00713348
0.00635449
0.00510515
0.00699946
0.00674932
0.00638517
0.00568848
0.00465654
0.00646911
0.00626241
0.00595221
0.0053481
0.00447513
0.00603394
0.00587844
0.00563061
0.00512874
0.00438944
0.00541407
0.0053805
0.00528001
0.00493517
0.00431549
0.00482321
0.00485777
0.00484995
0.00464679
0.00417151
0.00437544
0.00443743
0.00446674
0.00433729
0.00395677
0.00406559
0.00413329
0.00416851
0.00406523
0.00373716
0.00385678
0.00391936
0.00394515
0.00384345
0.00354191
0.00371576
0.00376668
0.00377587
0.00366417
0.00337605
0.00361716
0.00365298
0.00364161
0.00351742
0.00323546
0.00354342
0.00356199
0.00352829
0.00338967
0.00311692
0.00348242
0.00348274
0.0034269
0.00327496
0.00301229
0.00342598
0.00340824
0.00333223
0.00317015
0.00292
0.0033692
0.00333479
0.00324205
0.00307432
0.00283957
0.00331018
0.00326145
0.00315638
0.00298797
0.00277117
0.00324995
0.00318966
0.0030769
0.00291236
0.00271519
0.00319149
0.00312227
0.00300602
0.00284901
0.00267216
0.00313893
0.00306264
0.00294625
0.00279936
0.00264288
0.00309504
0.00301343
0.00289971
0.00276503
0.00262908
0.00305925
0.00297602
0.00286863
0.00274888
0.00263463
0.00303203
0.00295349
0.00285777
0.00275693
0.00266667
0.00302249
0.00295648
0.00287802
0.00279913
0.0027334
0.00305163
0.00300145
0.00294075
0.00288386
0.00284276
0.0031357
0.00310023
0.00305961
0.00302554
0.00300762
0.00329313
0.00327368
0.00325128
0.00323486
0.00323096
0.00351947
0.0035116
0.00350349
0.00350141
0.00350847
0.00321772
0.00328849
0.00334978
0.00340529
0.0034558
0.00247074
0.00227556
0.00209841
0.00193928
0.00179754
0.00229369
0.00240613
0.00254319
0.002693
0.00284928
0.00232976
0.00231102
0.00228516
0.00220013
0.00208077
0.00223009
0.00223861
0.00225087
0.00228403
0.00233028
0.00153269
0.00152791
0.00151807
0.00150962
0.00151187
0.00156676
0.00289438
0.00277423
0.00261917
0.00235949
0.00202959
0.00153514
0.00733459
0.00721348
0.007006
0.00660142
0.00575191
0.00393935
0.0113876
0.0113139
0.0111451
0.0107565
0.00963743
0.00685761
0.0134996
0.013421
0.0132375
0.0128181
0.0115584
0.00842348
0.0140607
0.0139467
0.013718
0.013254
0.0119738
0.00886376
0.0125402
0.0122582
0.0117705
0.0106246
0.00801032
0.00828145
0.00794744
0.00746135
0.00651891
0.0048497
0.00530715
0.00506773
0.00473879
0.00403418
0.00292069
0.00431236
0.00411114
0.00382279
0.00322242
0.00252709
0.00409369
0.00390012
0.0036038
0.00304536
0.00250408
0.00424489
0.00404128
0.00371362
0.00313256
0.00258079
0.00459289
0.00435816
0.00396153
0.00330665
0.00270292
0.0049714
0.00470493
0.00424537
0.00351081
0.00284826
0.00527846
0.00498491
0.00447378
0.00370295
0.00299923
0.00547717
0.00516404
0.00462521
0.00384838
0.003138
0.00557485
0.00524592
0.0046962
0.00393978
0.00324886
0.00559419
0.00525045
0.00469945
0.00397655
0.00331855
0.00555609
0.00519749
0.00465042
0.00396568
0.00334487
0.00547481
0.00510166
0.00456184
0.00391621
0.00333277
0.00535865
0.00497261
0.00444307
0.00383626
0.00329002
0.00521232
0.00481676
0.00430114
0.00373315
0.00322458
0.00503906
0.00463915
0.00414197
0.00361366
0.0031441
0.00484238
0.00444474
0.00397129
0.00348427
0.00305544
0.00462729
0.00423931
0.00379504
0.00335117
0.00296449
0.00440082
0.00402967
0.00361948
0.00322014
0.0028761
0.00417213
0.0038236
0.00345089
0.0030963
0.00279415
0.00395107
0.00362871
0.00329491
0.00298387
0.00272163
0.00374819
0.00345224
0.00315629
0.0028862
0.00266107
0.00356504
0.00329735
0.00303782
0.00280578
0.00261492
0.00340464
0.00316679
0.00294209
0.0027454
0.00258649
0.00327218
0.00306461
0.00287304
0.00270934
0.00258062
0.00317454
0.00299663
0.00283663
0.00270432
0.00260499
0.00312322
0.00297452
0.00284592
0.00274471
0.00267483
0.00313902
0.00302621
0.00293288
0.00286559
0.00282726
0.00328056
0.00321435
0.0031636
0.00313171
0.0031203
0.00312611
0.0031609
0.00319489
0.00322983
0.00326652
0.00237974
0.00219242
0.00202556
0.00187777
0.00174764
0.00232302
0.002436
0.00256791
0.00270879
0.00284951
0.00199344
0.00199961
0.00201096
0.00202996
0.00205985
0.00226471
0.00229485
0.00233257
0.00239171
0.00242897
0.00140601
0.00140733
0.00140541
0.0014083
0.00142782
0.00234807
0.00224023
0.00211395
0.00187946
0.00163319
0.001286
0.00772005
0.00758147
0.00734972
0.00681742
0.00573918
0.00332654
0.0128482
0.0128155
0.0126807
0.0122023
0.0105609
0.00590331
0.0145626
0.0145421
0.0144145
0.0139437
0.0121759
0.00702472
0.0138991
0.0138416
0.013678
0.0132252
0.0116704
0.00706285
0.0105012
0.0103746
0.0101481
0.00973422
0.00865432
0.00573191
0.00409211
0.00389658
0.00363107
0.00313909
0.00232702
0.00240149
0.00233373
0.00224784
0.0020887
0.00194828
0.00245286
0.00237625
0.00225932
0.00213423
0.00219386
0.0027076
0.0025936
0.00241493
0.00228828
0.00233505
0.00310018
0.00289992
0.00264125
0.00245352
0.00237826
0.00341744
0.0031123
0.00277764
0.00252785
0.00236711
0.0036676
0.00324943
0.00283867
0.00253754
0.00233123
0.00382983
0.00332278
0.00285532
0.00251561
0.00229156
0.00390732
0.00334417
0.00284544
0.00248721
0.00225912
0.00391271
0.0033253
0.00282021
0.0024621
0.00224025
0.00386371
0.00327845
0.00278747
0.00244385
0.0022356
0.00377743
0.00321468
0.00275284
0.00243352
0.00224344
0.00366864
0.00314303
0.00271982
0.00242977
0.00225862
0.00354912
0.00306992
0.00268963
0.00242929
0.00227366
0.00342766
0.00299932
0.00266222
0.00242966
0.0022867
0.0033102
0.00293314
0.00263678
0.00242909
0.00229678
0.0032
0.00287167
0.00261219
0.00242649
0.00230376
0.00309853
0.00281437
0.00258754
0.00242153
0.00230826
0.0030058
0.0027605
0.00256256
0.00241483
0.00231171
0.00292266
0.00271048
0.00253825
0.00240817
0.00231642
0.00284961
0.00266555
0.00251678
0.0024044
0.00232559
0.00279136
0.00262971
0.00250216
0.00240775
0.00234345
0.00274663
0.00260609
0.00249914
0.00242343
0.00237517
0.00271638
0.00259855
0.00251335
0.00245754
0.00242659
0.00270673
0.00261399
0.00255215
0.0025171
0.00250386
0.00272536
0.00266019
0.0026229
0.00260849
0.00261185
0.00278488
0.00274496
0.00273042
0.00273439
0.0027514
0.00286719
0.00286041
0.00287062
0.0028913
0.00291797
0.00295643
0.00298569
0.00302164
0.00305946
0.00309587
0.00285596
0.00291367
0.00297379
0.00303065
0.00307999
0.00255673
0.00234402
0.00214758
0.00196875
0.00180806
0.00470071
0.00496265
0.00525276
0.00554898
0.0058285
0.00208618
0.0022018
0.0023308
0.00246468
0.00259681
0.0019282
0.00204983
0.00218322
0.00232503
0.00247144
0.00131399
0.00131249
0.0013078
0.0013023
0.00129829
0.00230682
0.00223511
0.00215415
0.00196622
0.00178345
0.0090669
0.00895317
0.00876111
0.00819776
0.00696915
0.00349851
0.0151987
0.0152204
0.0151457
0.0145765
0.0122542
0.00519301
0.0159994
0.0160581
0.0160312
0.0155436
0.013245
0.0057048
0.0135796
0.0136082
0.0135731
0.0132364
0.0116502
0.00554124
0.00796893
0.00789158
0.00775441
0.00748535
0.00674804
0.00414782
0.00186047
0.00182321
0.00177419
0.00170822
0.00159712
0.00140326
0.00202838
0.0020145
0.00199796
0.00211001
0.00261346
0.00234554
0.00240466
0.00248212
0.00278847
0.00336752
0.00271363
0.00295284
0.00320497
0.00347614
0.00381094
0.00280203
0.00304867
0.00332631
0.00362275
0.00390538
0.00274379
0.0029923
0.00328012
0.00358614
0.00386577
0.00273566
0.00296542
0.00323433
0.00352157
0.00378449
0.00275671
0.00296319
0.00320483
0.00346256
0.0036999
0.00279427
0.00297495
0.00318713
0.00341363
0.00362325
0.00284523
0.00299893
0.00318092
0.00337606
0.00355761
0.00290644
0.00303269
0.00318448
0.00334871
0.00350248
0.00297554
0.00307401
0.00319575
0.00332955
0.00345617
0.00305068
0.00312091
0.00321253
0.00331599
0.00341533
0.00313054
0.00317174
0.00323282
0.00330555
0.00337653
0.00321408
0.00322495
0.00325469
0.00329615
0.00333824
0.00330007
0.00327862
0.00327576
0.00328529
0.00329818
0.00338664
0.00333018
0.00329316
0.00327015
0.00325382
0.0034707
0.00337623
0.00330363
0.00324786
0.00320271
0.00354794
0.00341261
0.00330362
0.00321553
0.0031425
0.00361283
0.00343468
0.00328951
0.00317029
0.00307083
0.00365658
0.00343608
0.00325689
0.00310893
0.00298515
0.00367433
0.00341226
0.00320215
0.00302851
0.00288295
0.00363994
0.00335078
0.0031186
0.002925
0.00276142
0.00355393
0.00325059
0.00300448
0.00279665
0.00261902
0.00341964
0.0031129
0.00286013
0.00264355
0.002456
0.00323623
0.00293862
0.00268762
0.00246842
0.00227558
0.00299278
0.00272695
0.00249213
0.00227962
0.00208636
0.0027687
0.00252302
0.00229612
0.00208782
0.00190057
0.00262371
0.00239587
0.00217978
0.0019767
0.00178802
0.002554
0.00234412
0.00214034
0.00194624
0.00176453
0.00562264
0.00516172
0.00470219
0.00425521
0.00383
0.00119868
0.00119953
0.00120075
0.00120263
0.00120758
0.00342067
0.00338622
0.00334797
0.00322487
0.00308458
0.0127282
0.0126969
0.0126176
0.0121873
0.0107206
0.0185873
0.0186462
0.0186343
0.0180699
0.0152053
0.00522862
0.018418
0.0185286
0.0185935
0.0181552
0.0155073
0.00538139
0.0146965
0.0147988
0.0148911
0.0147119
0.0132088
0.0052816
0.00610238
0.00608109
0.00604204
0.00593498
0.00563773
0.00370157
0.00123101
0.00122866
0.00122578
0.00122223
0.0012183
0.00121608
0.000857925
0.000858061
0.000858192
0.000858396
0.000858685
0.00860582
0.00860472
0.00860481
0.00856824
0.00844454
0.0188886
0.0188904
0.0188722
0.0186399
0.0173017
0.0218514
0.0218844
0.0218887
0.021563
0.0195168
0.0213678
0.0214408
0.0215041
0.0212708
0.0193835
0.00893443
0.0186594
0.0187521
0.0188582
0.0188042
0.0175827
0.00882309
0.00881159
0.0088273
0.00884832
0.00884214
0.00873717
0.00654708
0.000855541
0.000855479
0.000855324
0.00085518
0.000855006
0.00085545
0.00166798
0.00149226
0.0013125
0.00112803
0.000938266
0.000839179
0.000757424
0.000674044
0.000588842
0.000501049
0.0016644
0.00149194
0.00131532
0.0011346
0.000950176
0.000808417
0.000775017
0.000744325
0.000745451
0.00079501
0.000903602
0.000437152
0.000436024
0.000420178
0.000412777
0.000431567
0.00048252
0.000510969
0.000524805
0.000513921
0.000510576
0.000530303
0.000566531
0.000604905
0.000595438
0.000588551
0.000600594
0.000630278
0.000671798
0.000658371
0.00064943
0.000659527
0.00068624
0.000738745
0.00072046
0.000707644
0.000714072
0.000737246
0.000805665
0.000781848
0.000764524
0.000766504
0.00078631
0.000873365
0.00084327
0.000821052
0.000818075
0.000834204
0.000941841
0.000904895
0.000877543
0.000869321
0.000881127
0.00101003
0.000966141
0.000933692
0.000920262
0.000927196
0.00107567
0.00102563
0.000988721
0.000970585
0.000972428
0.00113561
0.00108165
0.00104173
0.00101987
0.00101683
0.00118745
0.00113306
0.00109222
0.00106787
0.00106044
0.00123187
0.00118047
0.00114062
0.00111478
0.00110342
0.00127306
0.00122622
0.00118816
0.00116112
0.00114586
0.00131546
0.00127281
0.00123609
0.00120731
0.00118746
0.00136262
0.00132215
0.0012852
0.00125329
0.00122751
0.00141666
0.00137519
0.00133555
0.00129845
0.00126509
0.00147752
0.00143143
0.00138614
0.0013415
0.00129871
0.00154365
0.00148908
0.00143496
0.00138041
0.00132645
0.00160897
0.00154417
0.00147872
0.00141261
0.00134638
0.00166553
0.00159129
0.00151354
0.00143566
0.00135741
0.00170874
0.00162599
0.00153664
0.00144859
0.00136069
0.00173649
0.00164568
0.00154679
0.00145251
0.00136069
0.00174854
0.00165012
0.00154576
0.0014526
0.00136373
0.00174227
0.00163756
0.00153808
0.00145244
0.00137162
0.00171616
0.00161052
0.00152074
0.00144474
0.00137285
0.00164992
0.00155695
0.00147897
0.001411
0.00134501
0.00154308
0.00146232
0.00139279
0.00132914
0.00126502
0.00308681
0.00292228
0.0027785
0.00264337
0.00250357
0.000933794
0.000852023
0.000768011
0.000682023
0.000594484
0.0010543
0.00101813
0.000975803
0.000926788
0.000870469
0.000932037
0.000852804
0.000770669
0.000686465
0.000601276
0.000427535
0.000410143
0.0003897
0.000382675
0.000387644
0.000431935
0.00151942
0.00157982
0.00147826
0.00132729
0.00121878
0.00114829
0.00207037
0.00225112
0.00213708
0.00192087
0.00175847
0.00169182
0.00236569
0.0026214
0.00254119
0.00232441
0.00217151
0.00211528
0.00282934
0.00279025
0.00259369
0.00245305
0.00240142
0.00293604
0.00292738
0.00275281
0.0026231
0.00257181
0.00298145
0.00299264
0.0028382
0.0027173
0.00266339
0.0029971
0.00301782
0.00288169
0.00276872
0.00271123
0.0029954
0.00302396
0.00290565
0.00280136
0.00274125
0.00298242
0.00302209
0.00292266
0.00282914
0.00276895
0.0029633
0.00301516
0.00293671
0.00285706
0.00280043
0.00293652
0.00300087
0.00294572
0.00288361
0.00283478
0.00290039
0.00297572
0.00294517
0.00290403
0.00286703
0.00285673
0.00293823
0.00293144
0.00291315
0.00289103
0.00280591
0.00288811
0.00290263
0.00290707
0.00290133
0.00274621
0.0028254
0.00285811
0.0028836
0.00289463
0.00267641
0.00275073
0.00279839
0.00284248
0.00286999
0.00259672
0.00266549
0.00272516
0.00278538
0.00282887
0.00250922
0.00257228
0.00264159
0.00271603
0.00277536
0.00241605
0.00247456
0.00255231
0.00264013
0.00271595
0.00232012
0.00237667
0.00246324
0.00256494
0.00265888
0.00222521
0.00228332
0.00238104
0.00249855
0.00261292
0.00213533
0.00219949
0.00231165
0.00244744
0.00258399
0.00205396
0.0021261
0.00224684
0.00239755
0.00256832
0.00198022
0.00205991
0.00216844
0.00234701
0.00254782
0.00190182
0.00195637
0.00207917
0.00227338
0.00248842
0.00179856
0.00183813
0.00195997
0.00214017
0.00234457
0.00167274
0.00171316
0.00180874
0.00194332
0.00210062
0.00157429
0.00159537
0.00164594
0.00171767
0.00180387
0.00139134
0.00133596
0.00128577
0.0012369
0.0011858
0.00107702
0.00099502
0.000910154
0.000823074
0.00073464
0.0010379
0.00101351
0.00098542
0.000952769
0.000914923
0.00107248
0.000995314
0.000913951
0.000829768
0.000744545
0.000481494
0.000464803
0.000434885
0.000414875
0.000411057
0.000471363
0.0019912
0.00208425
0.00189567
0.00165816
0.00145237
0.00134799
0.0027766
0.00301015
0.00276808
0.00239183
0.0021449
0.0020456
0.00326978
0.00356514
0.00334842
0.00295903
0.00270883
0.00261473
0.00362355
0.00393426
0.00375654
0.00337657
0.00312287
0.0030227
0.00418635
0.00403904
0.00367049
0.00340944
0.0032944
0.00436608
0.00423964
0.00387933
0.00360796
0.00347407
0.00450673
0.00439006
0.00403383
0.003752
0.00359979
0.00462985
0.0045074
0.00415165
0.00386252
0.00369613
0.00472886
0.00459432
0.00423931
0.00394973
0.00377604
0.00479847
0.00464445
0.00429669
0.00401696
0.00384458
0.00482174
0.00464998
0.00432192
0.00406433
0.00390206
0.0047897
0.00461015
0.00431585
0.00409154
0.00394665
0.00471295
0.00453513
0.00428434
0.00409966
0.00397623
0.00460895
0.00443989
0.00423577
0.00409114
0.00398968
0.00449177
0.00433671
0.00417704
0.00406853
0.00398706
0.00437194
0.00423352
0.00411262
0.00403415
0.00396954
0.00425538
0.00413392
0.00404481
0.00399008
0.00393907
0.0041432
0.00403847
0.00397464
0.00393823
0.00389788
0.00402953
0.00394595
0.00390244
0.00388008
0.00384781
0.00389892
0.00385334
0.00382747
0.00381578
0.00378898
0.00376604
0.00375864
0.00374783
0.0037433
0.00371877
0.00363964
0.00365714
0.00365803
0.00365697
0.00363122
0.00351531
0.00353767
0.00353801
0.00354354
0.00351869
0.00336728
0.00336732
0.00337418
0.00339474
0.00337771
0.00316779
0.00314831
0.00317855
0.00321946
0.0032174
0.00290122
0.00289386
0.00295293
0.00302144
0.00305101
0.00257763
0.00259718
0.00267736
0.00277228
0.00284432
0.0020952
0.00212962
0.0021993
0.00228536
0.00236999
0.00142584
0.0013818
0.00134246
0.00130359
0.0012619
0.00115134
0.00107285
0.000991021
0.000906872
0.000821784
0.00102223
0.000998845
0.0009735
0.000945122
0.000913215
0.00114337
0.00107108
0.000994137
0.000914411
0.000834301
0.000544612
0.000528172
0.000489825
0.000453459
0.000459484
0.000596305
0.0023394
0.00239684
0.00211377
0.00183768
0.0016126
0.00152998
0.00333661
0.00349539
0.00310396
0.00266018
0.00241081
0.00232775
0.00398176
0.00417946
0.00377873
0.00330192
0.00303719
0.00294773
0.00446741
0.00464634
0.00425732
0.00376229
0.00346915
0.00335199
0.00483545
0.00498346
0.0045976
0.0040814
0.00374993
0.00359325
0.00523903
0.00484859
0.00430743
0.00393581
0.00373958
0.00544167
0.0050402
0.00447342
0.00406769
0.00383959
0.00560578
0.00518351
0.00459463
0.00416694
0.00391859
0.00572158
0.00527526
0.00467439
0.00424138
0.00398588
0.00578242
0.00530468
0.00471046
0.00429158
0.00404187
0.00575885
0.0052629
0.00470122
0.00431608
0.00408337
0.00564333
0.0051553
0.0046514
0.00431502
0.00410705
0.00546454
0.00500527
0.00457352
0.00429176
0.00411127
0.00525817
0.00483963
0.00448153
0.00425137
0.00409672
0.00505004
0.00467742
0.00438538
0.00419854
0.00406563
0.00485643
0.00452876
0.00429058
0.0041371
0.00402103
0.00468355
0.00439626
0.00419925
0.00406988
0.00396596
0.00452929
0.00427843
0.00411165
0.0039987
0.00390272
0.0043795
0.00417083
0.00402633
0.00392366
0.00383178
0.00420689
0.00406691
0.00393939
0.00384193
0.00375079
0.00403938
0.00395926
0.00384336
0.00374766
0.00365495
0.00388542
0.00383021
0.00372253
0.00363133
0.00353862
0.00373284
0.00367483
0.00357369
0.00348738
0.00339933
0.00356215
0.00349187
0.00340037
0.00332162
0.00324081
0.00336999
0.00329321
0.00321621
0.0031493
0.0030798
0.00317371
0.00310466
0.00305274
0.0030083
0.00295962
0.00294715
0.00291249
0.00290526
0.00290335
0.00289123
0.00231481
0.00233913
0.00238765
0.00244495
0.00249721
0.00148669
0.00145737
0.00143032
0.00140137
0.00136739
0.00118541
0.0011114
0.00103395
0.000954218
0.000873761
0.00102442
0.000998802
0.000971995
0.000943156
0.000911673
0.00117548
0.00110844
0.00103642
0.000961738
0.00088727
0.000618561
0.000594134
0.000548437
0.000503875
0.000545687
0.00269285
0.00263803
0.00227327
0.00199584
0.0017926
0.00173584
0.00391684
0.00387182
0.00335781
0.00290894
0.00269282
0.00263614
0.00469172
0.00465735
0.0040947
0.00359563
0.00335155
0.0032717
0.00526093
0.0051856
0.00460245
0.00405274
0.0037524
0.00361761
0.00568555
0.00556791
0.00495726
0.00434784
0.00397819
0.00378144
0.00600348
0.00586287
0.00521805
0.00454739
0.00411305
0.00386507
0.00609727
0.00541541
0.00469053
0.00420734
0.00392495
0.00627787
0.00555646
0.00479133
0.00428029
0.00398029
0.00639545
0.00563297
0.0048489
0.00433312
0.00403058
0.0064253
0.00562928
0.00485633
0.00435991
0.00406824
0.00633249
0.00553429
0.00480963
0.00435548
0.00408589
0.00611836
0.00535903
0.00471559
0.00431986
0.00407963
0.00583129
0.00513878
0.00459158
0.0042585
0.00404951
0.00552189
0.00490866
0.00445495
0.0041788
0.00399867
0.00522549
0.00469088
0.00431687
0.0040871
0.00393147
0.00496064
0.004495
0.00418283
0.00398809
0.00385218
0.00473079
0.00432152
0.00405445
0.00388493
0.00376427
0.00452949
0.00416715
0.00393172
0.00377964
0.00367026
0.00433407
0.00402531
0.00381298
0.00367271
0.00357134
0.00410329
0.00388179
0.00369212
0.00356244
0.00346686
0.00387823
0.00373179
0.00356162
0.00344463
0.00335516
0.00368202
0.0035778
0.00342395
0.00331503
0.00323504
0.00351369
0.00341879
0.00327906
0.00317932
0.00310757
0.00335147
0.00325132
0.00312663
0.00303747
0.00297462
0.00319145
0.00308638
0.00297818
0.00290154
0.00284931
0.00305861
0.00296022
0.00287562
0.00281822
0.0027818
0.00293844
0.0028753
0.00283387
0.00281034
0.00279685
0.00230807
0.00232179
0.00235816
0.0024068
0.00245783
0.00155984
0.00154858
0.00153641
0.00151905
0.00149326
0.00119921
0.001129
0.00105534
0.000979401
0.000902794
0.00103318
0.00100491
0.000976343
0.000946142
0.000913807
0.00118874
0.00112571
0.0010576
0.000986601
0.000915957
0.000699327
0.000661617
0.00061299
0.000584618
0.000676368
0.00303548
0.00281973
0.00241399
0.00215841
0.00199646
0.0044572
0.00416582
0.00358287
0.00316969
0.00299921
0.00296866
0.00533678
0.00501682
0.00435639
0.00387691
0.0036617
0.00358283
0.00594118
0.00557241
0.00485832
0.00429473
0.0039949
0.00383421
0.00638557
0.00596733
0.00519113
0.00453328
0.0041425
0.00390935
0.00672876
0.00627053
0.00542829
0.00468343
0.00421921
0.00393825
0.00699247
0.00651177
0.00560474
0.00479035
0.00427755
0.00397055
0.00669291
0.00572617
0.00486448
0.0043271
0.00400979
0.00679821
0.00578005
0.00489819
0.00435905
0.00404401
0.00679034
0.00574463
0.00487878
0.00436166
0.00406058
0.0066316
0.00560602
0.00480016
0.00432851
0.00405197
0.00633283
0.00538011
0.00467128
0.0042615
0.0040167
0.00596047
0.00511114
0.00451321
0.00416881
0.0039576
0.00557555
0.00483836
0.0043449
0.00405958
0.00387994
0.00521633
0.00458393
0.00417735
0.0039406
0.00378876
0.0048996
0.00435543
0.00401516
0.00381596
0.00368764
0.00462493
0.00415039
0.00385897
0.0036878
0.00357878
0.00438136
0.00396201
0.00370844
0.00355783
0.00346419
0.00414461
0.00378445
0.00355979
0.00342718
0.00334565
0.0038798
0.00362009
0.00341576
0.00329738
0.00322528
0.00363444
0.00346351
0.00327756
0.00316741
0.00310586
0.00343376
0.00331288
0.00314573
0.00304535
0.00299106
0.00327401
0.00316864
0.00301955
0.00292986
0.00288272
0.00313258
0.00302566
0.00289558
0.00281761
0.00277806
0.00300216
0.00289102
0.00278047
0.00271619
0.00268672
0.00290614
0.00280179
0.00271844
0.00267657
0.0026652
0.0028348
0.00276573
0.00272547
0.00271601
0.00272842
0.00221293
0.0022209
0.00225755
0.00231527
0.00238605
0.00163973
0.0016501
0.00165585
0.00165215
0.00163537
0.00120431
0.00113659
0.00106539
0.000991796
0.000917354
0.00104376
0.00101296
0.000982308
0.00095083
0.000917587
0.00119419
0.00113366
0.00106769
0.000998449
0.00092901
0.000783154
0.000734841
0.000692287
0.000698103
0.000825281
0.00331039
0.00295912
0.00255753
0.00233771
0.0022158
0.00490787
0.00440264
0.00380208
0.00344492
0.00331993
0.00585726
0.00529181
0.00458713
0.00414672
0.00395509
0.00386683
0.00646707
0.00584024
0.00505026
0.00449584
0.00419592
0.00400726
0.00690085
0.00621047
0.00532935
0.00465893
0.00426214
0.00400636
0.0072394
0.00648586
0.00551494
0.0047513
0.00428924
0.004
0.00751195
0.00670331
0.00564919
0.00481875
0.00431917
0.0040156
0.00771475
0.00686516
0.00573824
0.00486427
0.00434736
0.00403996
0.00694582
0.00576487
0.00487334
0.00435769
0.00405557
0.00690006
0.00570211
0.00483012
0.0043374
0.0040507
0.00668796
0.00553496
0.00472916
0.00428226
0.00402099
0.00632951
0.00528291
0.00458177
0.00419677
0.00396782
0.00590523
0.00499439
0.00441045
0.00409042
0.00389553
0.00548177
0.00470814
0.00423302
0.00397179
0.00380918
0.00509709
0.00444376
0.00405814
0.00384555
0.00371184
0.0047644
0.00420602
0.00388801
0.00371313
0.00360434
0.00448035
0.00399199
0.00372138
0.00357446
0.00348635
0.00423297
0.00379794
0.00355713
0.00343074
0.00335912
0.00399604
0.00361866
0.00339843
0.00328477
0.00322545
0.00372529
0.00345166
0.00324753
0.00314067
0.00309075
0.0034682
0.00329467
0.00310735
0.00300754
0.00296299
0.00326052
0.00314819
0.00297987
0.0028887
0.00284896
0.0031046
0.00301507
0.00286625
0.00278485
0.00274974
0.00297995
0.00288848
0.00275905
0.00268778
0.0026576
0.00287135
0.00276945
0.00266034
0.00260356
0.00258393
0.00279219
0.00269275
0.00261714
0.00258993
0.00259368
0.00272465
0.00265923
0.00263121
0.00264308
0.0026825
0.00208854
0.00209349
0.00213498
0.00220736
0.00230655
0.00172396
0.00175814
0.00178392
0.00179535
0.00178823
0.0012074
0.00114086
0.00107072
0.000997859
0.000923739
0.00105508
0.00102167
0.000988762
0.000955797
0.000921763
0.00119805
0.00113865
0.00107314
0.00100363
0.000932759
0.000870541
0.000818414
0.000790298
0.000830985
0.000971281
0.00350817
0.00307431
0.00270551
0.00252566
0.00244071
0.00524616
0.00460299
0.00402614
0.00372604
0.00364077
0.00623541
0.005504
0.00480169
0.0044017
0.0042244
0.00683365
0.00601744
0.00519879
0.00466621
0.00436657
0.00415789
0.00724207
0.00633442
0.00539865
0.00475061
0.00436359
0.0041046
0.00755743
0.0065581
0.00551773
0.00478821
0.00435356
0.00407764
0.00781784
0.00673425
0.00560323
0.00481837
0.00435979
0.0040785
0.00801782
0.00686551
0.00565752
0.00483568
0.00436717
0.00408594
0.00812225
0.00691886
0.00565868
0.00482306
0.00435867
0.00408435
0.00684052
0.00557731
0.00476528
0.00432458
0.00406612
0.00659639
0.00540079
0.00465858
0.00426321
0.0040295
0.00621518
0.00515195
0.00451531
0.00417946
0.00397629
0.00578513
0.00487885
0.00435574
0.00408086
0.00390922
0.00537051
0.00461473
0.00419322
0.00397269
0.003831
0.00500255
0.00437274
0.00403158
0.0038554
0.00374083
0.0046874
0.00415296
0.00387026
0.00372691
0.00363611
0.00441729
0.00394963
0.00370578
0.00358462
0.00351365
0.00417775
0.00375765
0.00353714
0.00342917
0.00337389
0.00394252
0.00357381
0.00336722
0.00326634
0.00322085
0.00366014
0.0033965
0.00320148
0.00310464
0.00306373
0.00337872