/*--------------------------------*- C++ -*----------------------------------*\
| =========                 |                                                 |
| \\      /  F ield         | OpenFOAM: The Open Source CFD Toolbox           |
|  \\    /   O peration     | Version:  2.3.1                                 |
|   \\  /    A nd           | Web:      www.OpenFOAM.org                      |
|    \\/     M anipulation  |                                                 |
\*---------------------------------------------------------------------------*/
FoamFile
{
    version     2.0;
    format      ascii;
    class       volScalarField;
    location    "600";
    object      epsilon;
}
// * * * * * * * * * * * * * * * * * * * * * * * * * * * * * * * * * * * * * //

dimensions      [0 2 -3 0 0 0 0];

internalField   nonuniform List<scalar> 
6852
(
0.0122368
0.0144437
0.0173777
0.0211224
0.0257219
0.0309624
0.020989
0.0238919
0.0277967
0.0328784
0.0394413
0.0476859
0.0175896
0.019561
0.0221921
0.0256519
0.0302986
0.0368205
0.0131918
0.0144105
0.0160089
0.0180518
0.020753
0.0245278
0.0121056
0.013322
0.0148643
0.0167298
0.0190268
0.0218656
0.0182076
0.0200338
0.0223264
0.0252294
0.0287503
0.0251239
0.0271182
0.0296934
0.033026
0.0371456
0.0349689
0.0370089
0.0397141
0.0432927
0.0478547
0.0487294
0.0507034
0.0533774
0.0569753
0.0617197
0.0676234
0.06934
0.0717247
0.0749882
0.0794847
0.0937424
0.0949028
0.0966029
0.0989991
0.10263
0.130697
0.130937
0.131504
0.132541
0.13492
0.180983
0.179596
0.178136
0.176816
0.176944
0.243657
0.239684
0.235047
0.230095
0.226544
0.30858
0.301897
0.294059
0.284811
0.276354
0.35929
0.349382
0.337836
0.325045
0.312024
0.387057
0.374058
0.359074
0.342813
0.32543
0.389497
0.37408
0.356532
0.337637
0.317037
0.370302
0.35341
0.334439
0.314118
0.291864
0.336616
0.319148
0.299815
0.279231
0.256791
0.296183
0.278757
0.259722
0.239737
0.218185
0.254788
0.237892
0.219801
0.200822
0.180649
0.216307
0.200019
0.182961
0.165349
0.147002
0.182602
0.166868
0.150785
0.134513
0.118012
0.154123
0.138841
0.123625
0.108618
0.0939001
0.130507
0.115595
0.101164
0.0873592
0.0743426
0.111048
0.0964827
0.0828145
0.0701926
0.0588008
0.0949879
0.0808237
0.0679634
0.0565368
0.0466835
0.0816922
0.0680531
0.0560862
0.0458634
0.0374199
0.0707247
0.0577716
0.0467756
0.0377145
0.0304874
0.0618575
0.0497275
0.0397153
0.0316895
0.0254271
0.0550869
0.0438003
0.0346641
0.0274573
0.0218834
0.0504564
0.0399003
0.0314218
0.0247642
0.0196167
0.0480303
0.0378814
0.0297271
0.0233165
0.018353
0.0471362
0.0369217
0.0287287
0.0223033
0.0173363
0.0453552
0.0351665
0.02696
0.0205972
0.0157572
0.0417272
0.032093
0.0244966
0.0186089
0.0141018
0.0366573
0.0284215
0.0217856
0.0165746
0.0125507
0.0318527
0.0249463
0.0192542
0.0147219
0.0111924
0.0298291
0.0235932
0.0182705
0.0139467
0.0105556
0.0206658
0.0164634
0.0126411
0.00944704
0.00692266
0.0181928
0.0210452
0.024853
0.0298055
0.0360698
0.00719422
0.00770964
0.00837778
0.00925674
0.0104187
0.0120361
0.00523375
0.00538018
0.00555642
0.00576463
0.00599231
0.00619078
0.005515
0.00562508
0.0057431
0.00591201
0.00609337
0.00633869
0.00508467
0.00511562
0.00513041
0.00514876
0.0050977
0.0050753
0.00581818
0.00587696
0.00592537
0.00599422
0.00599567
0.00602027
0.00731167
0.00737053
0.00744732
0.00744278
0.0074557
0.0087792
0.00883612
0.00891705
0.00891481
0.00893916
0.0104308
0.0104771
0.0105553
0.0105549
0.0105925
0.0123291
0.0123532
0.0124155
0.0124082
0.0124318
0.0143439
0.0143271
0.0143461
0.0143058
0.0142722
0.0161391
0.0160587
0.0159988
0.0158946
0.0158253
0.0182445
0.0180869
0.0179324
0.0177412
0.0176031
0.0211574
0.0208781
0.0205715
0.0202191
0.0199153
0.0263376
0.0253533
0.0241579
0.0233159
0.0227127
0.0349166
0.0332676
0.0312673
0.0292405
0.0277133
0.0432283
0.0410977
0.0385575
0.0358343
0.0336332
0.0491394
0.0466199
0.0436811
0.0405901
0.0380304
0.0518709
0.0491013
0.0459426
0.0426962
0.039944
0.051669
0.0487983
0.0455958
0.0423688
0.0395807
0.0493241
0.0464738
0.043358
0.0402734
0.0375655
0.0457286
0.0429792
0.0400357
0.0371533
0.0345823
0.0416357
0.0390273
0.0362768
0.0336132
0.0311987
0.0375436
0.0350882
0.0325439
0.0300573
0.0277874
0.033771
0.0314267
0.0290507
0.0267413
0.0245751
0.0304648
0.0281769
0.0259115
0.0237264
0.0216605
0.0276569
0.0253657
0.0231544
0.0210469
0.0190587
0.0253093
0.022958
0.0207538
0.0186912
0.0167683
0.0233452
0.0208888
0.0186611
0.0166276
0.0147692
0.0216712
0.0190853
0.0168235
0.0148195
0.0130339
0.0201886
0.0174785
0.0151938
0.013233
0.0115337
0.0188137
0.0160134
0.013734
0.0118386
0.0102434
0.0174573
0.01464
0.0124114
0.0106112
0.00914087
0.0160656
0.0133105
0.0111833
0.0095143
0.00819733
0.014491
0.0119033
0.00996139
0.00849099
0.0073855
0.012451
0.0102707
0.00872927
0.00756996
0.00667428
0.0101855
0.0087101
0.00755493
0.00663106
0.00589341
0.0080373
0.00701972
0.00618752
0.00552083
0.00498841
0.00600905
0.00538936
0.00487123
0.00444185
0.00408641
0.006347
0.00530151
0.00464764
0.00413583
0.00372634
0.0348801
0.027226
0.0207902
0.0157771
0.0119823
0.0190591
0.0219015
0.0257432
0.0308614
0.0375244
0.00527309
0.00549776
0.00578198
0.00614699
0.00663005
0.0049365
0.00509103
0.00527925
0.00550673
0.00574315
0.00577412
0.00392145
0.00401666
0.00411993
0.00433091
0.00461339
0.00520921
0.00223683
0.00222646
0.00219947
0.0021905
0.00214122
0.00229285
0.00246414
0.00244827
0.00241086
0.00238825
0.00230292
0.00234202
0.00323159
0.00320957
0.00316103
0.00311996
0.00300152
0.00300265
0.00395493
0.00389414
0.00384282
0.00371044
0.00371733
0.00478811
0.00470947
0.00464507
0.00449989
0.00451378
0.00579775
0.00569611
0.00561284
0.00545348
0.00544272
0.00680575
0.00668168
0.00657779
0.00641957
0.00639388
0.00717885
0.00705204
0.0069478
0.00691644
0.00729501
0.00723956
0.00715088
0.00711629
0.00728569
0.00795109
0.00733832
0.00729574
0.00733572
0.00761891
0.00829438
0.00765321
0.0076381
0.00771108
0.00799534
0.00851799
0.00822328
0.00821622
0.00828609
0.00849092
0.00877672
0.0094496
0.00927766
0.00912208
0.00907076
0.00908961
0.0109197
0.0105994
0.0102432
0.00988975
0.00955804
0.0121972
0.0117598
0.0112505
0.0106951
0.0101332
0.0130248
0.0125101
0.0119041
0.0112304
0.0105473
0.0133451
0.0127918
0.0121379
0.0114128
0.0106836
0.0132275
0.0126697
0.0120077
0.0112728
0.0105441
0.0128044
0.0122557
0.0116101
0.0108993
0.0101887
0.0122074
0.0116708
0.0110476
0.010369
0.00969654
0.0115434
0.0110122
0.010408
0.00975935
0.00912256
0.010889
0.0103484
0.00975211
0.00912433
0.00851378
0.0102929
0.00972162
0.00911685
0.0084964
0.00789959
0.00978124
0.00915292
0.00852019
0.00789189
0.00729657
0.0093609
0.00864598
0.00796552
0.00731578
0.00671308
0.00902218
0.0081911
0.00744623
0.00676609
0.00615262
0.00873416
0.0077662
0.00694882
0.0062371
0.00561622
0.0084525
0.00734305
0.00645757
0.00572263
0.00510457
0.00809701
0.00688268
0.00595514
0.0052176
0.00461974
0.00761227
0.00635898
0.00543249
0.00472263
0.00416765
0.00696239
0.00575752
0.00488914
0.00424446
0.00375752
0.00614343
0.00508975
0.00434278
0.00379863
0.00339766
0.00523803
0.00441769
0.00383242
0.00341692
0.00312529
0.00438102
0.00384841
0.00345538
0.00316219
0.00294802
0.00384697
0.00351259
0.00324865
0.00304465
0.00289046
0.00457988
0.00412652
0.00377445
0.0034984
0.0032806
0.029293
0.0228847
0.0179453
0.0141645
0.0112802
0.0234359
0.0270543
0.0319458
0.0379305
0.0449244
0.00511748
0.00533594
0.00561448
0.00628604
0.00748481
0.00637047
0.00673514
0.00719136
0.00776653
0.00844828
0.00361199
0.00373696
0.00388157
0.00419609
0.00465728
0.00573224
0.00101194
0.00102199
0.00103024
0.00107847
0.00113204
0.001564
0.000911264
0.000903151
0.000885748
0.000886707
0.000863013
0.00103226
0.00127654
0.00125831
0.00122514
0.00120316
0.00114539
0.00127013
0.0016932
0.00166394
0.00161566
0.00157937
0.0015024
0.00163271
0.00223737
0.00219084
0.00211842
0.00205923
0.00195082
0.00207031
0.00298867
0.00288233
0.00278769
0.00263504
0.00269697
0.00415278
0.00402126
0.00389895
0.00374444
0.0038358
0.00553652
0.00542067
0.00532543
0.00561444
0.00741066
0.00642374
0.00639329
0.0064692
0.00739079
0.0100674
0.00691501
0.00697625
0.0072334
0.00840962
0.0107891
0.00749591
0.00759325
0.00786066
0.00881323
0.0105052
0.00823289
0.00831012
0.00846413
0.00901242
0.00989138
0.00915899
0.00913963
0.00904988
0.00910948
0.00927419
0.0101071
0.00995172
0.00958551
0.00914773
0.00874103
0.0109034
0.0105888
0.00995608
0.00911554
0.00828936
0.0114364
0.0109619
0.0101038
0.00898558
0.007913
0.0116749
0.0110555
0.0100287
0.00875105
0.00757863
0.0116435
0.0109033
0.00976626
0.00842541
0.00725155
0.0113947
0.0105592
0.0093652
0.00803284
0.0069154
0.0109868
0.0100809
0.00887338
0.00759786
0.00656724
0.0104726
0.00951927
0.00833186
0.00714169
0.00620858
0.00989552
0.00891544
0.00777228
0.00668071
0.00584341
0.00929108
0.0083011
0.00721728
0.00622623
0.00547596
0.00868904
0.00770011
0.00668189
0.00578516
0.00510979
0.00811319
0.0071287
0.00617442
0.00536079
0.00474761
0.00758337
0.00659676
0.00569789
0.00495374
0.00439147
0.00710332
0.00610367
0.00524944
0.00456238
0.00404297
0.0066728
0.00564419
0.00482363
0.00418467
0.00370412
0.00623398
0.00519366
0.00440954
0.00381804
0.00337775
0.0057483
0.00473431
0.00400117
0.00346369
0.00306925
0.00520139
0.00426153
0.00360123
0.00312846
0.00278715
0.00460175
0.0037862
0.00322218
0.00282484
0.00254274
0.00399888
0.00334296
0.00289073
0.00257493
0.00235448
0.00346047
0.00298797
0.00265505
0.00242281
0.00226376
0.00319668
0.00288592
0.00265719
0.00249105
0.00237295
0.00415105
0.00374953
0.00344353
0.00320928
0.0030282
0.0261738
0.0204669
0.0161404
0.0128591
0.0103667
0.0243465
0.0280743
0.0328865
0.0386014
0.0449357
0.00785855
0.00869149
0.00978633
0.0111963
0.0129223
0.00928078
0.0101771
0.011297
0.0126463
0.0140308
0.00379149
0.00393993
0.00411629
0.00451212
0.00512258
0.000604553
0.000629697
0.000660691
0.00074795
0.000863279
0.00137395
0.000342167
0.000342928
0.000342007
0.000356054
0.000368212
0.000583543
0.0004717
0.00046427
0.000451195
0.000446999
0.000434872
0.000615196
0.000669167
0.000653607
0.000628939
0.00061301
0.000584289
0.000765217
0.000982139
0.000952171
0.000906738
0.000868641
0.000805436
0.000959643
0.00162903
0.00157464
0.00149527
0.00141825
0.00130099
0.00137803
0.00316444
0.00307369
0.00298278
0.00289413
0.00310517
0.00779239
0.00765613
0.00752621
0.00853843
0.0140365
0.0111982
0.0112399
0.0114874
0.0145472
0.0227816
0.0127522
0.0131111
0.0141269
0.0180142
0.0242724
0.0138038
0.0140981
0.0149587
0.0176052
0.0217371
0.0142192
0.0143587
0.0150011
0.0166715
0.0187908
0.0143095
0.0142218
0.0145414
0.0154485
0.0164878
0.0141062
0.0137775
0.0137981
0.0142541
0.0148005
0.0137969
0.0132629
0.0130485
0.013222
0.0135638
0.0134472
0.0127602
0.0123838
0.012383
0.0126115
0.0130966
0.0123043
0.0118229
0.0117069
0.0118358
0.0127689
0.0119085
0.011359
0.0111527
0.0111621
0.0124799
0.0115763
0.0109792
0.0106952
0.0105883
0.0122384
0.0113053
0.0106713
0.0103237
0.0101408
0.0120456
0.011087
0.0104176
0.0100117
0.00976497
0.0118955
0.0109066
0.0101967
0.00973186
0.0094234
0.0117749
0.0107451
0.00998653
0.00946078
0.00909193
0.0116669
0.0105822
0.00976781
0.00918145
0.00875618
0.0115518
0.0103988
0.00952561
0.00888323
0.00840915
0.0114173
0.0101829
0.0092521
0.00856218
0.00804972
0.011245
0.00992406
0.00894368
0.00821902
0.00768078
0.0110459
0.00962761
0.00860535
0.00785967
0.00730844
0.0107432
0.00927503
0.00823711
0.0074898
0.00693924
0.010305
0.00885782
0.00784237
0.00711574
0.00657932
0.00975334
0.00838953
0.00743183
0.00674503
0.0062335
0.00909857
0.00787679
0.00700937
0.00637872
0.0059001
0.00834571
0.00731291
0.00656298
0.0060025
0.00556379
0.00747396
0.00666918
0.00605678
0.00557944
0.005191
0.00662646
0.00601638
0.00552539
0.00512473
0.00478592
0.00685603
0.00608355
0.00546911
0.00497532
0.00456923
0.0324592
0.0250131
0.0192366
0.0148202
0.0114794
0.0126081
0.0148354
0.0175923
0.0207395
0.0240342
0.0176332
0.0207306
0.0245921
0.0290777
0.0340095
0.0139231
0.0167276
0.0202101
0.0244097
0.0293176
0.00387449
0.00401863
0.00419276
0.00458671
0.00503238
0.000419194
0.000436745
0.000458492
0.000515156
0.0005861
0.000143528
0.000145479
0.000147676
0.000156661
0.000170538
0.000351937
0.000174196
0.000172091
0.000168339
0.00016831
0.000171819
0.000338744
0.000250838
0.000244565
0.00023476
0.000227899
0.000221321
0.000380223
0.000393914
0.000379588
0.000358521
0.000338182
0.000310021
0.00043902
0.000882927
0.000847793
0.000799975
0.000746907
0.000672437
0.000711918
0.0030308
0.00299855
0.00295893
0.00291426
0.00290389
0.00315704
0.0162079
0.0158774
0.0154895
0.0182446
0.0346678
0.0250614
0.0270047
0.0296993
0.0421093
0.074167
0.0388088
0.0500031
0.0639367
0.0815779
0.107492
0.0427263
0.0550313
0.0714773
0.0923408
0.115683
0.0401173
0.052035
0.0685409
0.0895699
0.112198
0.0397617
0.0506451
0.0657101
0.0848182
0.10527
0.0406867
0.0505308
0.0639283
0.0806251
0.0983671
0.0423726
0.051135
0.0628753
0.0772555
0.092379
0.0447337
0.0523817
0.0625081
0.074733
0.0874487
0.047683
0.0541705
0.0627183
0.0729309
0.0834461
0.0511653
0.0564155
0.0633869
0.0716863
0.0801795
0.0551405
0.0590372
0.0643906
0.0708143
0.0773711
0.0595852
0.0619688
0.0656185
0.0701475
0.0747637
0.064484
0.0651402
0.0669593
0.0695509
0.0722493
0.0697992
0.068447
0.0682681
0.0688654
0.069679
0.0754373
0.0717269
0.0693614
0.0679178
0.0669051
0.0811954
0.0747439
0.070025
0.0665385
0.0638021
0.0867378
0.0771865
0.0700247
0.0645711
0.0602708
0.091585
0.0786936
0.0691311
0.0618837
0.0562401
0.0949526
0.0787899
0.067095
0.0583598
0.0516628
0.0963422
0.0771625
0.0637685
0.0539469
0.0465363
0.0936622
0.0730668
0.0589063
0.0486027
0.0408958
0.0871782
0.0667062
0.0526729
0.042481
0.0348896
0.0776643
0.0585838
0.0454399
0.0358792
0.0287718
0.0658261
0.0492846
0.0377037
0.0292103
0.0228855
0.0520604
0.0393836
0.0300602
0.0230076
0.017638
0.0412199
0.0311919
0.0235108
0.017675
0.0133333
0.0350775
0.0267097
0.020115
0.0150004
0.011102
0.0323552
0.0250163
0.0190429
0.0143177
0.0106702
0.0215765
0.0166934
0.0126201
0.00935243
0.00681956
0.00334491
0.00335207
0.00336231
0.00337813
0.00342002
0.000214783
0.000218995
0.000224516
0.000234733
0.000251973
6.29628e-05
6.39371e-05
6.52106e-05
6.73203e-05
7.46145e-05
6.86307e-05
6.84494e-05
6.79668e-05
6.78153e-05
7.28859e-05
0.000173373
8.94347e-05
8.79382e-05
8.55521e-05
8.30024e-05
8.45312e-05
0.000178286
0.000127477
0.000123932
0.000118801
0.000112688
0.000108762
0.000190991
0.000336745
0.000326028
0.000312114
0.000294556
0.000272878
0.000301704
0.00362298
0.00360229
0.00357702
0.003546
0.00351187
0.00349273
0.00122639
0.00122697
0.00122753
0.0012284
0.00122965
6.75966e-05
6.81516e-05
6.9054e-05
6.93653e-05
7.23886e-05
2.94699e-05
2.9946e-05
3.06601e-05
3.09897e-05
3.41532e-05
3.28768e-05
3.31285e-05
3.35032e-05
3.33933e-05
3.62039e-05
3.7649e-05
3.75293e-05
3.74135e-05
3.66585e-05
3.86157e-05
6.48779e-05
4.70929e-05
4.65091e-05
4.5814e-05
4.43332e-05
4.54456e-05
6.99674e-05
7.38513e-05
7.31862e-05
7.24655e-05
7.07997e-05
7.10154e-05
8.48175e-05
0.00121619
0.00121593
0.00121526
0.00121465
0.00121391
0.0012158
0.000568407
0.000407501
0.000277615
0.000176735
0.00010225
0.00115751
0.000851859
0.000600906
0.000401462
0.000248325
0.000564762
0.00040722
0.000279338
0.000179695
0.000105962
6.41641e-05
5.65351e-05
4.99904e-05
4.99684e-05
6.02662e-05
8.83676e-05
0.000162736
0.000161449
0.000144306
0.000135907
0.000154557
0.000215743
0.00025963
0.000281473
0.000264167
0.000258125
0.000288237
0.000350849
0.000430692
0.000410637
0.000395666
0.000419492
0.000484156
0.000590369
0.000555475
0.000532054
0.000556158
0.000625786
0.000785288
0.000728174
0.000688697
0.000706389
0.000776604
0.00101883
0.000930828
0.000868806
0.000874172
0.000943039
0.00129808
0.00116806
0.00107644
0.0010632
0.00112662
0.0016282
0.00144337
0.00131452
0.00127617
0.00132803
0.00200825
0.00175664
0.00158345
0.00151419
0.00154763
0.00242581
0.00210123
0.00188014
0.00177648
0.00178535
0.00285402
0.00246406
0.00219865
0.00206086
0.00204097
0.00326205
0.00283131
0.00253328
0.00236521
0.0023145
0.00364026
0.00320024
0.00288393
0.00268988
0.00260671
0.0040152
0.00358479
0.00325812
0.00303828
0.00291833
0.0044266
0.00400649
0.0036666
0.00341406
0.00324686
0.00491633
0.00448791
0.00411914
0.00381767
0.00358538
0.00552084
0.00504697
0.00462027
0.00424398
0.00392365
0.00625961
0.00568899
0.0051635
0.00467881
0.00424371
0.00713471
0.00640188
0.00572681
0.00509677
0.00452053
0.00807648
0.00713697
0.00626555
0.00546111
0.00472666
0.00895638
0.00780911
0.00671809
0.00573247
0.00484342
0.0096707
0.00833073
0.00703058
0.00588912
0.00487882
0.01015
0.00863805
0.00717215
0.00593817
0.00487969
0.0103647
0.00871054
0.00715999
0.00594127
0.00491419
0.0102571
0.0085166
0.00705693
0.00594198
0.00500265
0.00980803
0.00810599
0.00682465
0.00585109
0.00501888
0.00872072
0.00732796
0.00628108
0.00545357
0.00472231
0.00713774
0.00607429
0.00524813
0.00456038
0.00393085
0.00357227
0.00303074
0.00260479
0.00224263
0.00190494
0.00159471
0.00121229
0.00088839
0.000623127
0.000413878
0.000702214
0.000592713
0.000488535
0.00039267
0.000307091
0.00158584
0.00121562
0.000897485
0.000635068
0.000427763
0.000151922
0.000134126
0.000114945
0.000108582
0.000112215
0.000154823
0.000141056
0.000126907
0.000117784
0.000124446
0.0001547
0.00021365
0.000262252
0.000220819
0.000199909
0.000202317
0.000227031
0.000274913
0.000348962
0.000306287
0.000266154
0.000256917
0.000276035
0.000315125
0.000366605
0.000313409
0.000294709
0.000307602
0.000339603
0.000410641
0.000348455
0.000322108
0.000329448
0.000356217
0.000445911
0.00037825
0.000346437
0.000349193
0.000372196
0.000478752
0.000408497
0.000373251
0.000372409
0.000392544
0.000513798
0.000443153
0.000406157
0.000402683
0.000420448
0.000552876
0.000484167
0.000447056
0.000441934
0.000457662
0.000595872
0.000531372
0.000496112
0.000490503
0.000504601
0.000640424
0.000582984
0.00055179
0.000547198
0.000560332
0.000683994
0.000636366
0.000611426
0.000609638
0.000622737
0.000726244
0.000689664
0.0006725
0.000675035
0.000689008
0.000768599
0.000742595
0.000733538
0.000740996
0.000756252
0.000812211
0.000795488
0.0007938
0.000805656
0.000821808
0.000858627
0.000849188
0.000853157
0.000867784
0.00088356
0.000909446
0.000904719
0.000911841
0.000926762
0.000940161
0.000965929
0.000962908
0.00097014
0.000982377
0.000990952
0.00102924
0.00102425
0.00102815
0.00103452
0.00103583
0.0010981
0.00108732
0.00108488
0.00108265
0.00107497
0.00116979
0.00115009
0.0011387
0.00112586
0.00110894
0.00123979
0.00120958
0.00118758
0.00116347
0.00113903
0.00130631
0.00126674
0.0012406
0.00120604
0.00116695
0.00136991
0.00132555
0.0013089
0.00124742
0.00119098
0.00144183
0.00142399
0.00137497
0.00128434
0.00120849
0.00155921
0.00153704
0.00145123
0.00133847
0.00123952
0.0017161
0.0016563
0.00155369
0.00143466
0.00131997
0.00187246
0.0017952
0.00169235
0.00157502
0.00145051
0.00523366
0.00463255
0.00412922
0.00367548
0.00323792
0.00244539
0.00192933
0.00147688
0.00109328
0.000778919
0.000677039
0.000589401
0.000503342
0.000421358
0.000345463
0.00241487
0.00193108
0.00149526
0.00111984
0.000810391
0.000216849
0.000195152
0.000159598
0.000138227
0.000134154
0.000202392
0.000205194
0.000177209
0.000170566
0.000195824
0.00024706
0.000336681
0.000343896
0.000295347
0.000265663
0.000273542
0.000313317
0.000377598
0.000434334
0.000388233
0.000331288
0.000320312
0.000346015
0.000390643
0.000493137
0.000447209
0.000372848
0.000346079
0.000359557
0.000391563
0.000483324
0.000398479
0.000360893
0.000365881
0.00039043
0.000507544
0.000417544
0.000373947
0.000373787
0.00039418
0.000528964
0.000437176
0.000391668
0.000389111
0.000407387
0.00055205
0.000461763
0.000417724
0.000415063
0.000432564
0.000577637
0.000492998
0.00045331
0.000452628
0.000470467
0.000602697
0.000529132
0.000497215
0.000500675
0.000520087
0.000623262
0.000566457
0.000546189
0.000556242
0.000578741
0.000636808
0.000601573
0.0005962
0.000615274
0.000642478
0.000646563
0.000633386
0.000644152
0.000673724
0.000706847
0.000656405
0.000662356
0.000688266
0.000728299
0.000767702
0.000667572
0.000688643
0.00072732
0.000776548
0.000821834
0.000680316
0.000712322
0.000760732
0.000817219
0.000867607
0.00069445
0.000733524
0.000788651
0.000850404
0.000905121
0.000709957
0.000752734
0.000812058
0.000877529
0.000936171
0.000727656
0.000770987
0.000832788
0.000901175
0.000963992
0.000750023
0.000789321
0.00085293
0.000924389
0.000992526
0.000773797
0.000808755
0.00087457
0.000949913
0.00102525
0.000794814
0.000829173
0.000898301
0.000978355
0.00106269
0.000813594
0.00085018
0.000923184
0.00100597
0.00109833
0.000827737
0.000869237
0.000940712
0.00102067
0.00111642
0.000840379
0.000882138
0.000940929
0.00100957
0.00109953
0.000870588
0.0008996
0.00093627
0.000983244
0.00105217
0.000955439
0.000966547
0.000978599
0.000996581
0.00102852
0.00127354
0.00125282
0.00123105
0.00120811
0.00118652
0.00563196
0.0051253
0.0046992
0.00430198
0.00390167
0.00298536
0.00241631
0.00190457
0.00146042
0.0010883
0.000729453
0.000637567
0.000548276
0.000464007
0.000386155
0.00292424
0.00240449
0.00192241
0.00149681
0.00113837
0.000313708
0.000286244
0.000227915
0.000180281
0.000187891
0.000413084
0.000286344
0.000250016
0.000250142
0.000299152
0.00037823
0.000512719
0.000457196
0.000393502
0.000359396
0.000375936
0.000430593
0.00050759
0.000563979
0.00050018
0.000427998
0.000415592
0.000445136
0.000490666
0.000629157
0.00056372
0.000468672
0.00043431
0.00044618
0.00047565
0.000672033
0.000602587
0.000494819
0.000446502
0.000447825
0.000469563
0.000632308
0.000518574
0.000462748
0.000458612
0.000477006
0.000664238
0.000548144
0.000489572
0.000483499
0.000500855
0.000704338
0.000587506
0.000529624
0.000524155
0.000541803
0.000752874
0.000636375
0.000582082
0.000579422
0.000598502
0.000798545
0.00068879
0.000642719
0.000645515
0.000667523
0.000828189
0.000736614
0.000705104
0.000716801
0.000743741
0.000836551
0.000774474
0.000763281
0.000787262
0.000821238
0.000832815
0.000803156
0.00081421
0.000852028
0.000894412
0.000826927
0.000825579
0.000856852
0.000907758
0.000958789
0.000822864
0.000843258
0.000890649
0.000952516
0.00101173
0.000821562
0.000856855
0.000915735
0.00098609
0.00105288
0.000822393
0.000866669
0.000933039
0.00100987
0.00108397
0.000825101
0.000873556
0.00094453
0.00102668
0.0011084
0.00083073
0.000878956
0.000953032
0.00104039
0.00113072
0.000846008
0.000885295
0.000961695
0.0010549
0.00115534
0.000862362
0.000893384
0.000973059
0.00107289
0.0011846
0.000871431
0.000901797
0.000985878
0.00109268
0.00121546
0.000871931
0.000903831
0.00099214
0.00110574
0.0012377
0.000855972
0.000893296
0.000983759
0.00109983
0.00123654
0.000827055
0.000867854
0.000954228
0.0010664
0.00120219
0.000802829
0.000841132
0.000915951
0.00101676
0.00114481
0.000838694
0.000867865
0.000921969
0.000996774
0.00109402
0.00120567
0.00120268
0.00121269
0.00123103
0.00125684
0.00638324
0.00601231
0.00568298
0.00534404
0.00496373
0.00325611
0.00268401
0.00216087
0.0016994
0.00130623
0.000774777
0.000679724
0.000587551
0.00050052
0.000420433
0.00317549
0.00266279
0.00217634
0.00173965
0.00136745
0.000459604
0.000407067
0.000319735
0.000247834
0.000316027
0.000388126
0.000343462
0.000356405
0.000435003
0.000550006
0.000729669
0.000602928
0.000505344
0.000470946
0.000498112
0.000565815
0.000648028
0.000734169
0.000620164
0.000536597
0.000524764
0.000556507
0.000599303
0.000808411
0.000685279
0.000574206
0.000536311
0.000547314
0.000573984
0.000852474
0.00072759
0.000602564
0.000549565
0.000550029
0.00057068
0.000895105
0.00076749
0.000636124
0.000575183
0.000570999
0.000590016
0.000819354
0.000683517
0.000618637
0.000613002
0.000632148
0.000889988
0.000747198
0.000680208
0.000674802
0.00069482
0.000974218
0.000822676
0.000755543
0.000751882
0.000773639
0.00105191
0.000898094
0.000836003
0.000836923
0.000862179
0.00109585
0.000959018
0.00091122
0.000921369
0.000952842
0.00109887
0.000998108
0.000973701
0.000997789
0.00103843
0.00107901
0.00101971
0.00102163
0.00106162
0.00111333
0.00105328
0.00103034
0.00105579
0.0011107
0.00117402
0.00102955
0.0010337
0.00107734
0.00114484
0.00121959
0.00101005
0.00103179
0.00108806
0.00116568
0.00125153
0.000994063
0.00102568
0.00109006
0.00117591
0.00127264
0.00098149
0.00101695
0.00108614
0.00117901
0.0012865
0.000973885
0.0010071
0.00107939
0.00117853
0.00129674
0.000983404
0.000999233
0.00107243
0.00117714
0.0013057
0.000990564
0.000989448
0.00106471
0.00117533
0.0013131
0.000977269
0.000971929
0.00105227
0.0011699
0.00131545
0.000947192
0.000949014
0.00103455
0.00115694
0.00130813
0.000901022
0.000918208
0.00100826
0.00113309
0.00128717
0.000848368
0.000879685
0.000971682
0.00109771
0.00125538
0.000806462
0.000848074
0.000940367
0.00106892
0.00123484
0.000833188
0.000876389
0.000958779
0.00107464
0.00122631
0.00125768
0.00127464
0.00131173
0.00136353
0.00142865
0.00737118
0.007212
0.0070428
0.00680595
0.00646409
0.0033691
0.00281141
0.00229587
0.00183578
0.00143908
0.000802418
0.00070698
0.000613225
0.000525005
0.000443944
0.00328213
0.0027871
0.00231067
0.00187642
0.00150275
0.000664099
0.000561904
0.000446695
0.000388436
0.000604239
0.000512688
0.0004615
0.000492841
0.000605233
0.000761994
0.000760275
0.000630718
0.000597479
0.000636014
0.000713422
0.000793609
0.00090939
0.000745121
0.000653499
0.000643885
0.000677547
0.000717562
0.000982601
0.000808535
0.000686201
0.000648843
0.000661895
0.000689008
0.001026
0.000855593
0.000718103
0.00066657
0.000671152
0.000695406
0.00107636
0.000910131
0.000764653
0.000705812
0.000707477
0.000732231
0.00116292
0.000987478
0.000833223
0.000769372
0.000769936
0.000795792
0.00109354
0.000923311
0.00085362
0.000853027
0.000879882
0.00121832
0.00102546
0.000949577
0.000948244
0.000976809
0.00132727
0.00112068
0.00104393
0.00104499
0.00107764
0.00137919
0.00118804
0.00112313
0.00113283
0.00117338
0.00136806
0.00121978
0.00117971
0.00120455
0.00125707
0.00132396
0.00122553
0.00121458
0.00125743
0.00132457
0.00127173
0.00121604
0.00123134
0.00129164
0.00137427
0.00122238
0.00119771
0.00123353
0.0013092
0.00140716
0.00117908
0.00117421
0.00122468
0.00131316
0.00142567
0.00114121
0.00114759
0.00120759
0.00130633
0.0014321
0.0011088
0.00111972
0.00118495
0.00129133
0.00142852
0.00108226
0.00109027
0.00115856
0.00127017
0.00141651
0.00107606
0.00105942
0.00112888
0.00124437
0.00139705
0.00106581
0.0010255
0.00109565
0.00121421
0.00137084
0.0010318
0.000987658
0.00106033
0.00118069
0.00133972
0.000981932
0.000949551
0.00102618
0.00114806
0.00130815
0.000919471
0.000911199
0.000994207
0.00111923
0.00128232
0.000858466
0.000875849
0.000967783
0.0011015
0.00127634
0.000817015
0.00086009
0.000966954
0.00112061
0.00132269
0.000853028
0.000912808
0.00102574
0.00118719
0.0014024
0.00134843
0.00139478
0.00146638
0.00155837
0.00167028
0.00856103
0.00872401
0.00881504
0.0087554
0.00849021
0.00341029
0.0028665
0.00236038
0.00190476
0.00150824
0.000818837
0.000722924
0.000628659
0.000539146
0.000457175
0.00332564
0.0028447
0.00237572
0.00194333
0.00156639
0.000932412
0.000769819
0.000644223
0.000663064
0.00109787
0.000658934
0.000607547
0.000668167
0.000812286
0.00100762
0.000924909
0.000773228
0.000738988
0.000787864
0.00087121
0.00107991
0.000879034
0.000778786
0.000773375
0.00081009
0.000850595
0.00114634
0.000935902
0.000805967
0.000773561
0.000792648
0.000825511
0.00118786
0.000985049
0.000843103
0.000798729
0.000812735
0.000846497
0.00124754
0.00105195
0.000904767
0.000853245
0.000866222
0.000902484
0.00135769
0.00115153
0.000994432
0.000935369
0.000946978
0.000984959
0.00153575
0.00128693
0.00110679
0.0010364
0.00104474
0.00108377
0.00144082
0.00122649
0.0011429
0.00114795
0.00118906
0.00156753
0.00132851
0.0012386
0.00124456
0.00129107
0.00161868
0.00138905
0.00130948
0.00132446
0.0013813
0.00158948
0.0014028
0.00135023
0.00138244
0.00145451
0.00151893
0.00138546
0.00136543
0.00141846
0.00150858
0.00143713
0.00135161
0.00136143
0.00143481
0.00154357
0.00135844
0.00130999
0.00134356
0.00143472
0.00156117
0.00128812
0.00126537
0.00131591
0.00142107
0.00156313
0.00122615
0.00121908
0.00128076
0.00139573
0.00155022
0.00117222
0.00117166
0.00124004
0.00136021
0.00152305
0.0011287
0.00112338
0.00119333
0.00131586
0.00148271
0.00111422
0.00107637
0.00114285
0.00126436
0.00143126
0.00110079
0.00102743
0.00108983
0.00120822
0.00137295
0.00106126
0.000976599
0.00103831
0.00115408
0.00131532
0.00100187
0.000930177
0.000995339
0.00111098
0.00127045
0.000930626
0.000892058
0.000966887
0.00108885
0.00125467
0.000867654
0.000869053
0.000962426
0.00110456
0.00129461
0.000833309
0.000880154
0.00100661
0.00118962
0.00142797
0.00088431
0.000967498
0.00112032
0.00133859
0.00162866
0.00146118
0.00155133
0.00167421
0.00182663
0.00201027
0.0099475
0.0105506
0.0110214
0.0112342
0.0110999
0.00343479
0.00289708
0.00239431
0.00193846
0.00153852
0.000831993
0.000734132
0.000638614
0.00054718
0.000463124
0.00335625
0.00288064
0.0024108
0.00197235
0.00158405
0.00128039
0.00106383
0.000959578
0.00111887
0.0017877
0.00082881
0.000787166
0.000881479
0.00105459
0.00127997
0.00109942
0.000930618
0.000899662
0.000953428
0.0010403
0.00124692
0.00101998
0.000918556
0.000915368
0.000957045
0.00130367
0.00106958
0.000941708
0.000913049
0.000941453
0.000985929
0.00134257
0.00112036
0.00098595
0.000946815
0.000973142
0.00102234
0.00141027
0.00119606
0.0010581
0.00101392
0.00104018
0.00109354
0.00153951
0.00130974
0.00115918
0.00110707
0.00113093
0.00118659
0.00174341
0.00146031
0.0012797
0.00121307
0.00123181
0.00128889
0.00198765
0.00162323
0.00140023
0.00131604
0.00133073
0.00139086
0.00174653
0.00149325
0.00140021
0.00141671
0.00148387
0.00178021
0.00153597
0.00145408
0.00148176
0.00156148
0.00172514
0.00152727
0.00147548
0.00152296
0.00162012
0.00162834
0.00148756
0.00147175
0.00154196
0.00165879
0.00152288
0.0014333
0.00145027
0.00154167
0.00167779
0.00142413
0.00137368
0.00141621
0.00152492
0.0016782
0.00133701
0.00131296
0.00137308
0.0014937
0.00166045
0.00126116
0.0012521
0.00132193
0.00144909
0.00162441
0.00119551
0.00119084
0.00126303
0.0013922
0.00157056
0.00114335
0.00112942
0.00119831
0.00132457
0.00150086
0.00112276
0.00106868
0.00112962
0.00124909
0.00141956