/*--------------------------------*- C++ -*----------------------------------*\
| =========                 |                                                 |
| \\      /  F ield         | OpenFOAM: The Open Source CFD Toolbox           |
|  \\    /   O peration     | Version:  2.3.1                                 |
|   \\  /    A nd           | Web:      www.OpenFOAM.org                      |
|    \\/     M anipulation  |                                                 |
\*---------------------------------------------------------------------------*/
FoamFile
{
    version     2.0;
    format      ascii;
    class       volScalarField;
    location    "600";
    object      k;
}
// * * * * * * * * * * * * * * * * * * * * * * * * * * * * * * * * * * * * * //

dimensions      [0 2 -2 0 0 0 0];

internalField   nonuniform List<scalar> 
6852
(
0.0210465
0.0235064
0.0265907
0.0302852
0.0345358
0.0390802
0.0189981
0.0207117
0.022911
0.0256245
0.02893
0.0328328
0.016887
0.0181263
0.0197173
0.0217168
0.0242659
0.0276338
0.0139396
0.0147855
0.0158595
0.0171815
0.0188553
0.0210776
0.0131635
0.0140312
0.0150942
0.0163321
0.0177947
0.0195234
0.0172802
0.0184172
0.0197968
0.0214776
0.023432
0.0214177
0.0225366
0.0239417
0.0257011
0.0277962
0.0266995
0.027728
0.0290633
0.0307839
0.0329103
0.0333101
0.0342037
0.0353959
0.0369691
0.0389939
0.0414425
0.0421409
0.0431016
0.0443993
0.0461569
0.0515235
0.0519478
0.0525664
0.0534321
0.0547308
0.0643019
0.0643808
0.0645664
0.0649056
0.0656798
0.0798863
0.0794778
0.0790466
0.0786555
0.0786935
0.0974019
0.0963401
0.0950936
0.0937532
0.0927862
0.114014
0.112362
0.110409
0.108082
0.105931
0.126186
0.123855
0.121111
0.118035
0.114861
0.132607
0.129621
0.126135
0.122298
0.118128
0.133163
0.129626
0.125539
0.121064
0.116088
0.128751
0.124806
0.120298
0.115374
0.109859
0.12082
0.116603
0.111845
0.106665
0.100871
0.11094
0.106545
0.101638
0.0963544
0.0904894
0.100346
0.0958594
0.0909358
0.0856228
0.0797883
0.0899693
0.0853944
0.0804675
0.075217
0.0695448
0.0803622
0.075677
0.0707327
0.0655478
0.0600713
0.0717727
0.0669462
0.061961
0.0568394
0.0515813
0.0642397
0.0592481
0.0542081
0.0491572
0.0441442
0.0576839
0.0525228
0.0474372
0.0424856
0.0377546
0.0519788
0.0466738
0.0415813
0.0367792
0.0323711
0.0470076
0.0416179
0.0365835
0.0319908
0.0279329
0.0427001
0.0373127
0.0324136
0.0280793
0.0243666
0.0390519
0.0337634
0.0290638
0.0250029
0.0215897
0.0361476
0.0310241
0.0265441
0.022724
0.019534
0.0340925
0.029154
0.024862
0.0212128
0.0181606
0.0329907
0.0281621
0.0239597
0.0203778
0.0173721
0.03258
0.0276844
0.0234202
0.0197831
0.0167244
0.031754
0.0267999
0.0224488
0.0187608
0.0156928
0.0300373
0.0252148
0.0210597
0.0175332
0.0145735
0.0275521
0.023253
0.0194758
0.0162309
0.0134842
0.0250887
0.0213167
0.0179362
0.0149977
0.0124929
0.0240146
0.0205387
0.01732
0.0144664
0.0120144
0.0298471
0.0256496
0.0215076
0.0177119
0.0143963
0.0172709
0.019032
0.0212635
0.0240019
0.0272569
0.0113771
0.01172
0.0121419
0.0126628
0.0133138
0.0141751
0.0104976
0.0105896
0.0106823
0.0107717
0.0108345
0.0108191
0.0109985
0.0110248
0.0110142
0.0109982
0.0109216
0.0108603
0.0131467
0.0130062
0.0127782
0.0124615
0.0119042
0.0111841
0.0171246
0.0170373
0.0168559
0.0166
0.0160186
0.0151291
0.0211317
0.0209506
0.0206745
0.0199997
0.0189238
0.0243606
0.0241602
0.023863
0.0231373
0.0219662
0.0270409
0.0268084
0.0264837
0.0257317
0.0245045
0.0291535
0.028876
0.0285116
0.0277458
0.026463
0.0302247
0.0298824
0.0294473
0.0286433
0.027287
0.0298508
0.0294496
0.0289453
0.028119
0.0267992
0.0291735
0.0287442
0.0282117
0.0274062
0.0261926
0.02887
0.0284185
0.0278614
0.0270683
0.0259381
0.029407
0.0287828
0.0280073
0.0271342
0.0260327
0.0310783
0.030296
0.0293278
0.0281784
0.0269242
0.0328519
0.0319632
0.0308775
0.0295892
0.0282455
0.0341706
0.0331802
0.0319912
0.0306314
0.0292697
0.0347589
0.0336867
0.0324241
0.0310269
0.0296572
0.0345828
0.033457
0.0321567
0.0307543
0.0293941
0.0337735
0.0326203
0.0313125
0.0299307
0.0285947
0.032532
0.031371
0.0300783
0.0287298
0.0274221
0.0310627
0.0299058
0.0286325
0.0273202
0.0260378
0.0295209
0.0283747
0.0271302
0.0258337
0.0245663
0.0280297
0.0268784
0.0256501
0.0243764
0.0231008
0.0266635
0.0254848
0.0242494
0.022976
0.021693
0.0254567
0.0242237
0.0229562
0.0216616
0.0203599
0.0244127
0.0230974
0.0217747
0.0204428
0.0191168
0.0235129
0.0220904
0.0206957
0.0193186
0.0179702
0.0227227
0.0211772
0.0197041
0.0182839
0.0169231
0.0219984
0.0203295
0.0187849
0.0173346
0.0159798
0.0212926
0.0195207
0.0179271
0.0164717
0.0151515
0.0205538
0.0187304
0.0171301
0.015709
0.0144636
0.0197507
0.0179445
0.0163961
0.0150631
0.0139414
0.0188523
0.01715
0.0157268
0.0145341
0.0135576
0.017737
0.0162607
0.0150473
0.014027
0.0131834
0.0163625
0.0152113
0.0142048
0.0133279
0.0125818
0.014517
0.0136386
0.0128636
0.0122039
0.0116488
0.0123039
0.0117809
0.0113116
0.0108967
0.0105296
0.0116057
0.0108975
0.010374
0.00992928
0.00954248
0.0266542
0.0225963
0.0188779
0.015706
0.013074
0.0178149
0.0195448
0.0217682
0.0245654
0.0279849
0.00987753
0.010037
0.0102271
0.0104541
0.0107394
0.00946236
0.0095857
0.00972755
0.00990473
0.0100848
0.0100819
0.00772176
0.00776891
0.00779605
0.00789259
0.008024
0.00845442
0.00809819
0.00794691
0.00771421
0.00741118
0.00689566
0.00641268
0.0118145
0.0116817
0.0114379
0.0111282
0.0104137
0.00945536
0.0160704
0.0159337
0.0156682
0.0153106
0.0144253
0.0131506
0.0192404
0.0189325
0.0185251
0.0175327
0.0160907
0.0219687
0.0215929
0.0211141
0.0200299
0.0184399
0.024044
0.0235829
0.0230107
0.0218485
0.0200765
0.0243055
0.0237416
0.0230448
0.0217874
0.0198545
0.0226414
0.0220627
0.0213509
0.0202197
0.01863
0.02098
0.0204728
0.0198703
0.0189759
0.0177683
0.0199875
0.0195701
0.0190869
0.01836
0.0173321
0.0196233
0.0192882
0.018894
0.0182367
0.0172186
0.0196449
0.0193818
0.0190494
0.0184039
0.0173101
0.0199479
0.0197042
0.0193549
0.0186595
0.0174669
0.0202395
0.0200118
0.0196569
0.0189059
0.01761
0.0203736
0.0201462
0.0197701
0.0189945
0.0176592
0.0202943
0.0200543
0.0196457
0.0188438
0.0175093
0.0200079
0.019747
0.0192989
0.0184707
0.0171555
0.019552
0.019266
0.0187787
0.0179239
0.0166394
0.0189798
0.0186604
0.0181339
0.0172678
0.0160123
0.0183421
0.0179814
0.0174118
0.0165339
0.015332
0.0176822
0.0172713
0.0166557
0.0157667
0.0146196
0.0170339
0.0165626
0.0158981
0.0149992
0.0139053
0.0164233
0.0158793
0.0151621
0.0142534
0.0132086
0.015869
0.0152375
0.0144626
0.0135427
0.0125406
0.0153824
0.0146456
0.0138067
0.012873
0.0119066
0.0149651
0.0141037
0.0131945
0.0122446
0.0113081
0.0146026
0.0136013
0.0126188
0.0116533
0.0107446
0.0142644
0.0131189
0.0120681
0.0110937
0.0102167
0.0138802
0.0126219
0.0115268
0.0105619
0.00972964
0.0133984
0.0120862
0.0109886
0.0100631
0.00929733
0.0127935
0.0115062
0.0104614
0.00961281
0.00893778
0.0120753
0.0109004
0.00996645
0.00923057
0.00866738
0.0113026
0.010321
0.00954986
0.00896698
0.00855035
0.010593
0.00989889
0.00934766
0.00891969
0.00860713
0.0102619
0.00979477
0.00940871
0.00910581
0.00888118
0.010706
0.0102735
0.00991659
0.00962586
0.00939028
0.023726
0.0201254
0.0171139
0.0146167
0.0125582
0.0204473
0.0225012
0.0251376
0.0281864
0.0315527
0.00962968
0.00979343
0.00998942
0.0103715
0.011006
0.0105117
0.010829
0.0112204
0.0117461
0.0123742
0.00656188
0.00666401
0.00676982
0.00701914
0.00740034
0.00835778
0.00477292
0.00469594
0.0045812
0.00444877
0.00422729
0.00432135
0.00721004
0.00711837
0.00694733
0.0067474
0.00621359
0.00562387
0.0106331
0.0105227
0.0103053
0.0100329
0.00926584
0.00823073
0.0133335
0.0131792
0.0128975
0.0125482
0.0116217
0.0103426
0.0156423
0.0154159
0.0150341
0.0145698
0.0134788
0.0119469
0.0170734
0.0165772
0.0159752
0.0147563
0.0129626
0.016355
0.015766
0.0150422
0.0137787
0.0120285
0.0151174
0.0146171
0.01401
0.0132727
0.0129747
0.0146784
0.0142979
0.0138689
0.0136102
0.0140668
0.0148382
0.0145471
0.014239
0.0141135
0.0144959
0.0157316
0.015449
0.015068
0.0146536
0.0145213
0.0171493
0.0167835
0.0161492
0.0152245
0.0144203
0.0188187
0.0182881
0.0172865
0.0157717
0.0143336
0.0203702
0.0196429
0.018263
0.0162315
0.0142795
0.021552
0.0206228
0.0189251
0.016518
0.0142238
0.0222684
0.0211486
0.0192107
0.0165935
0.0141405
0.0225384
0.0212479
0.0191458
0.0164517
0.0139861
0.0224313
0.0209944
0.0187948
0.0161206
0.0137351
0.0220274
0.0204691
0.0182287
0.0156421
0.0133887
0.0213989
0.0197456
0.0175111
0.0150566
0.0129634
0.0206049
0.0188846
0.0166952
0.0144001
0.0124784
0.0196935
0.0179357
0.0158236
0.0137029
0.0119539
0.0187064
0.0169402
0.0149307
0.0129896
0.0114076
0.0176839
0.015934
0.0140438
0.0122796
0.0108544
0.0166644
0.0149475
0.013184
0.0115872
0.0103055
0.0156869
0.0140065
0.0123666
0.0109223
0.00976916
0.0147746
0.013125
0.0115986
0.01029
0.00925108
0.0139474
0.0123106
0.0108819
0.00969218
0.00875585
0.0131475
0.0115411
0.0102072
0.00912797
0.00828839
0.0123377
0.0107985
0.00956862
0.00860003
0.00785777
0.0115055
0.0100785
0.00897066
0.00811941
0.00747946
0.0106593
0.00939389
0.00843149
0.00770821
0.00717765
0.00985595
0.00879431
0.00799914
0.0074141
0.00699879
0.00919161
0.00838619
0.00778235
0.00734843
0.00705546
0.00903133
0.00849408
0.00808593
0.00778951
0.00758875
0.0100464
0.00960112
0.00925033
0.00897885
0.00877126
0.0220103
0.0186817
0.0159462
0.0137042
0.0118706
0.0209736
0.0230633
0.0256287
0.0285178
0.031558
0.0110383
0.0116265
0.012372
0.0132956
0.0143885
0.0127857
0.0134777
0.0143161
0.0153378
0.0162809
0.00643912
0.00656704
0.00670783
0.00703018
0.00754239
0.00332277
0.00331238
0.0032959
0.0033066
0.00331147
0.00370709
0.00453269
0.00449683
0.00442161
0.00434506
0.00405417
0.00388562
0.00686564
0.0068027
0.00667084
0.00651331
0.00597665
0.00531474
0.00870591
0.00859804
0.00839714
0.00815361
0.00743861
0.00646598
0.010304
0.0101246
0.00982155
0.00945253
0.0085504
0.0072606
0.0115349
0.0112721
0.0108637
0.0103623
0.00935797
0.00783804
0.0100357
0.00965159
0.00917816
0.00840598
0.00749671
0.0120643
0.0117885
0.0114709
0.0117775
0.0145842
0.0146163
0.014413
0.0142078
0.0155395
0.0197162
0.0163875
0.0162629
0.0162893
0.0179056
0.0209958
0.018244
0.017832
0.0175299
0.0183292
0.020052
0.0194409
0.0186434
0.0180023
0.0181047
0.0185998
0.0202037
0.0189587
0.0179179
0.0174613
0.0172902
0.0204985
0.0188696
0.0175051
0.0167001
0.0162417
0.0204766
0.0185734
0.0169935
0.0159931
0.0154379
0.0202294
0.0181665
0.0164814
0.015399
0.0148238
0.0198385
0.0177129
0.0160101
0.0149172
0.0143458
0.0193688
0.0172554
0.0155951
0.014529
0.0139559
0.0188706
0.0168223
0.0152399
0.0142169
0.0136384
0.0183802
0.0164298
0.0149411
0.0139664
0.0133915
0.0179201
0.0160822
0.014687
0.0137548
0.0131786
0.0175003
0.0157739
0.0144609
0.0135596
0.0129745
0.0171191
0.0154917
0.0142442
0.0133623
0.0127636
0.0167681
0.0152197
0.0140207
0.0131501
0.012538
0.0164336
0.0149421
0.0137788
0.0129168
0.0122962
0.0161101
0.0146517
0.013515
0.0126638
0.0120428
0.015787
0.0143438
0.0132315
0.0123977
0.0117868
0.0154859
0.0140327
0.012941
0.0121321
0.0115417
0.0151494
0.0137113
0.0126535
0.0118817
0.0113222
0.0147552
0.01338
0.0123816
0.0116624
0.0111434
0.0143294
0.0130602
0.0121459
0.0114913
0.0110179
0.0138876
0.0127661
0.011958
0.011376
0.0109479
0.0134451
0.0124951
0.0118057
0.0112986
0.0109116
0.0129101
0.0121809
0.0116289
0.0112013
0.0108541
0.0123439
0.01182
0.0113954
0.011043
0.010735
0.0123407
0.0117416
0.0112471
0.0108294
0.0104622
0.0254062
0.0213546
0.0179253
0.0150644
0.0127056
0.0214701
0.0239296
0.0268091
0.0299181
0.0330081
0.0169149
0.0188418
0.0211144
0.0236096
0.0262089
0.0144501
0.0163307
0.0185251
0.0210099
0.0237392
0.00629262
0.00640494
0.00653054
0.00681608
0.00712852
0.00274247
0.00275544
0.00277161
0.00280681
0.00285131
0.00318145
0.00318285
0.00317221
0.0031605
0.00304039
0.00309458
0.00453784
0.00451356
0.00445314
0.00436827
0.00404674
0.00369891
0.00558696
0.00552677
0.00541032
0.00524897
0.0047749
0.0041074
0.00645017
0.00633847
0.00615212
0.00590049
0.00530018
0.00434984
0.00739758
0.00721364
0.00694609
0.00659427
0.00594076
0.0047924
0.00662244
0.00652081
0.00638991
0.0062225
0.00600602
0.00586998
0.0159906
0.0157725
0.0155146
0.0173036
0.026546
0.0213821
0.0224737
0.0239448
0.0302204
0.0440746
0.0286199
0.033888
0.0399222
0.0469638
0.0564458
0.0305149
0.0361233
0.0430025
0.0510086
0.0592781
0.0292596
0.0347999
0.0418165
0.049983
0.0580816
0.0290865
0.0341775
0.0406571
0.0481993
0.0556651
0.0295359
0.034126
0.0399187
0.0465974
0.0532044
0.0303462
0.0343975
0.0394792
0.0452898
0.0510227
0.0314633
0.0349544
0.0393253
0.0442985
0.0491907
0.0328315
0.0357457
0.0394134
0.0435835
0.0476781
0.0344111
0.0367265
0.039693
0.0430863
0.0464255
0.0361711
0.0378558
0.0401109
0.0427361
0.045335
0.0380896
0.0390988
0.0406193
0.0424674
0.0443107
0.0401497
0.0404217
0.0411707
0.0422263
0.0433115
0.0423267
0.0417783
0.0417055
0.0419484
0.0422781
0.0445764
0.0431025
0.0421496
0.0415627
0.0411485
0.0468168
0.0443029
0.042418
0.040998
0.0398661
0.0489238
0.0452629
0.0424179
0.0401859
0.0383812
0.0507299
0.0458502
0.0420562
0.039063
0.0366504
0.051966
0.0458875
0.0412263
0.0375656
0.0346338
0.0524717
0.0452535
0.0398522
0.0356472
0.032303
0.0514941
0.0436376
0.0377997
0.0332523
0.0296369
0.0490892
0.0410669
0.0350837
0.030398
0.026659
0.0454494
0.0376616
0.0317936
0.0271608
0.0234437
0.0407049
0.0335626
0.0280739
0.0236813
0.0201259
0.0348112
0.0289018
0.0241384
0.0201974
0.0169179
0.0297933
0.0247405
0.0204908
0.0169416
0.0140391
0.0267547
0.0223097
0.0184669
0.0151862
0.0124255
0.0253519
0.0213565
0.0178048
0.0147219
0.0121012
0.0307177
0.0258879
0.0214837
0.0175934
0.014253
0.00558433
0.00559229
0.00560367
0.00562124
0.00566761
0.00239047
0.00240161
0.00241792
0.00242645
0.00245869
0.00249663
0.00251277
0.00252974
0.00252612
0.0024943
0.00314989
0.0031507
0.00313858
0.00308723
0.00293594
0.00265528
0.00357933
0.0035599
0.00351742
0.00342352
0.00319303
0.0027317
0.00381726
0.00377687
0.00370939
0.00359088
0.00334271
0.00280103
0.00399786
0.00392686
0.0038298
0.00368741
0.00345911
0.00294721
0.00588969
0.00586724
0.00583977
0.00580596
0.00576864
0.00574767
0.00286066
0.00286156
0.00286244
0.0028638
0.00286573
0.00212709
0.00213567
0.00214977
0.00215003
0.00218047
0.00208074
0.00209758
0.00212142
0.00211962
0.00214382
0.00236381
0.00237463
0.00238825
0.00236653
0.00234428
0.00250141
0.00250169
0.00250151
0.00246268
0.00241283
0.00212329
0.00261429
0.00260448
0.00259225
0.00254636
0.00249297
0.00219122
0.00224975
0.00224159
0.00223318
0.00220659
0.0021968
0.00207823
0.00284478
0.00284437
0.00284334
0.00284238
0.00284122
0.00284418
0.0027147
0.0021735
0.00168212
0.00124416
0.00086296
0.002748
0.00223903
0.00177364
0.00135486
0.000982737
0.00270313
0.00217259
0.0016892
0.00125825
0.000884138
0.000635028
0.0005837
0.000537978
0.000538469
0.00061095
0.000788803
0.000743613
0.00073978
0.000686637
0.000660791
0.000720874
0.000900563
0.00101552
0.00107153
0.00102743
0.00101269
0.0010909
0.001244
0.00142319
0.00137888
0.00134598
0.00140029
0.00154116
0.00175597
0.00168628
0.00163941
0.0016894
0.0018281
0.00212371
0.00201965
0.0019469
0.00198097
0.00211072
0.00252615
0.00237873
0.00227283
0.00228308
0.00240191
0.00296878
0.00276735
0.00262171
0.00260111
0.00270398
0.00345282
0.00318668
0.00299514
0.00293758
0.00301711
0.00397113
0.00363259
0.00339079
0.00329219
0.00334104
0.00450416
0.0040935
0.00380215
0.00366212
0.00367493
0.00501994
0.0045524
0.00422043
0.00404324
0.00401789
0.00548805
0.00499461
0.00463877
0.0044323
0.00436946
0.00590509
0.00542017
0.00505798
0.00482945
0.00473014
0.00630477
0.00584686
0.0054871
0.00523834
0.00510025
0.00672941
0.00629768
0.00593727
0.00566226
0.00547648
0.00721812
0.00679344
0.00641692
0.00610061
0.00585114
0.00779941
0.00734736
0.00692797
0.00654716
0.00621396
0.00848156
0.00795872
0.00746145
0.00698747
0.0065478
0.00925558
0.0086111
0.00799517
0.00739799
0.00682985
0.0100538
0.00925878
0.00848939
0.00774675
0.00703617
0.0107719
0.00983167
0.0088936
0.00800146
0.00715172
0.0113376
0.0102649
0.00916731
0.00814659
0.00718652
0.0117091
0.0105156
0.00928967
0.00819152
0.00718716
0.0118733
0.0105738
0.00927867
0.00819391
0.00722053
0.0117902
0.0104155
0.00918866
0.00819382
0.00730614
0.0114423
0.0100769
0.00898494
0.00810913
0.00732107
0.0105789
0.00942024
0.00850034
0.00773667
0.00702893
0.00925555
0.00831181
0.00754008
0.00686633
0.00621918
0.00926084
0.00829968
0.00750272
0.00679031
0.00609053
0.00340261
0.002833
0.00230207
0.00181678
0.00138226
0.0023956
0.00216196
0.0019209
0.00167772
0.00143718
0.00338998
0.00283821
0.00231783
0.00184009
0.00141333
0.000710497
0.00065392
0.000590054
0.000568419
0.000581931
0.000721934
0.00128885
0.00124701
0.00116199
0.00113219
0.00121118
0.00138245
0.00205348
0.00196395
0.00182112
0.00173787
0.00176242
0.00190301
0.00253274
0.0024972
0.00229203
0.00215458
0.0021596
0.0022781
0.00283865
0.00260635
0.00243772
0.00242306
0.00251977
0.00306048
0.00281487
0.00262548
0.00259304
0.00267059
0.00321369
0.0029651
0.00276458
0.002717
0.00277789
0.00333852
0.00309413
0.00289127
0.00283211
0.00287816
0.0034574
0.00322583
0.00302833
0.0029621
0.002995
0.00357854
0.00337066
0.00318628
0.00311829
0.00314034
0.00370306
0.00352709
0.00336455
0.00330123
0.00331604
0.00382158
0.00368576
0.00355383
0.00350295
0.00351568
0.00392517
0.0038349
0.00374079
0.00371055
0.0037273
0.00401425
0.00396741
0.00391432
0.00391076
0.003937
0.0040931
0.00408205
0.00406833
0.00409329
0.00413201
0.00416304
0.00417931
0.00419996
0.00425107
0.00430243
0.00422604
0.00426112
0.0043088
0.00438055
0.00444214
0.00428453
0.00433004
0.0043962
0.00448142
0.00454928
0.00434098
0.00438874
0.00446478
0.00455628
0.00462619
0.00439742
0.00443995
0.00451826
0.00460999
0.00467892
0.00445144
0.00448356
0.00455977
0.00464847
0.00471618
0.00449984
0.00451997
0.00459309
0.00467868
0.00474856
0.00453827
0.00454975
0.00462192
0.00470736
0.00478585
0.00456907
0.00457788
0.00465748
0.0047437
0.0048294
0.0045944
0.00460968
0.00469984
0.00477326
0.00485926
0.00461934
0.00465625
0.00471681
0.00476677
0.00483739
0.00467161
0.00468909
0.00470486
0.00472143
0.00475536
0.00472639
0.00469908
0.00467638
0.00465781
0.00464491
0.00478903
0.00472052
0.00465539
0.00458795
0.00451196
0.00752575
0.00693808
0.00642614
0.00594651
0.00546485
0.0045254
0.00386247
0.00323148
0.00264398
0.00210842
0.00233454
0.00215175
0.00196024
0.00176313
0.00156397
0.00448754
0.00386475
0.00325827
0.00268675
0.00216509
0.000900864
0.000839704
0.000734523
0.000667814
0.000655234
0.000862311
0.00178022
0.00169296
0.00158393
0.00158805
0.00167051
0.0018793
0.00272351
0.00262717
0.00238999
0.00225517
0.00228643
0.00245179
0.00332234
0.00327909
0.00293571
0.00271456
0.0027004
0.00281958
0.00372739
0.00369734
0.00329872
0.00301414
0.00295568
0.00303521
0.003965
0.00353587
0.00320896
0.00311526
0.00316407
0.00414925
0.0037079
0.00335781
0.00323893
0.00326466
0.0043033
0.00386041
0.00350389
0.00336976
0.00337831
0.00445544
0.00401984
0.00367075
0.00353103
0.00352732
0.00460561
0.00419326
0.00386392
0.00372864
0.00371812
0.0047387
0.00436783
0.00407404
0.00395479
0.0039446
0.00483043
0.00452217
0.0042827
0.00419309
0.00419211
0.00486656
0.00464069
0.00447172
0.00442491
0.00444211
0.00486468
0.00472355
0.00463158
0.00463514
0.00467677
0.00484776
0.0047801
0.00476086
0.00481443
0.00488216
0.00482691
0.00481777
0.00486051
0.00495779
0.00504967
0.00480797
0.00484191
0.00493284
0.00506458
0.00517694
0.00479306
0.00485586
0.00498132
0.00513823
0.00526732
0.00478249
0.00486238
0.00501096
0.00518563
0.00532884
0.00477532
0.00486469
0.00502847
0.00521622
0.00537263
0.00476933
0.00486442
0.00504002
0.00523914
0.00540979
0.0047614
0.00486333
0.00505038
0.00526042
0.00544714
0.00474421
0.00485761
0.0050569
0.00527676
0.00548008
0.00471741
0.00483787
0.0050417
0.00526709
0.0054842
0.00465706
0.00477258
0.00497008
0.00519277
0.00541718
0.00455138
0.00464885
0.00482431
0.00502921
0.00524676
0.00443327
0.00450088
0.00463832
0.00480802
0.00499786
0.00437762
0.00441968
0.00451525
0.00463655
0.00477094
0.00455638
0.00455617
0.00458971
0.00463484
0.00467742
0.00790306
0.00742192
0.00700487
0.00660456
0.0061884
0.00516981
0.00448855
0.00382949
0.00320796
0.00263624
0.00240502
0.00222194
0.00203378
0.00184319
0.00165249
0.00509882
0.00447379
0.00385338
0.00326115
0.0027167
0.00115248
0.00108414
0.000931697
0.000797485
0.000819894
0.00138439
0.00228041
0.00215699
0.00202624
0.00206693
0.00217792
0.00247009
0.0034426
0.00326833
0.00294427
0.00278857
0.00284178
0.00303217
0.00417797
0.00403012
0.00354521
0.00326665
0.00324331
0.00335512
0.00467496
0.00451117
0.00393749
0.00356444
0.00347033
0.00352269
0.00502701
0.00483012
0.0042039
0.0037639
0.00361449
0.00362377
0.00507265
0.00441893
0.00393593
0.00374704
0.00372586
0.0052982
0.00463145
0.00412518
0.00391101
0.00386846
0.00553696
0.00486202
0.00434796
0.0041213
0.0040646
0.0057829
0.00510448
0.00459744
0.00437159
0.0043085
0.00598694
0.0053253
0.00484967
0.00464148
0.00458204
0.00608447
0.00548568
0.00507494
0.00490516
0.00486135
0.00605368
0.00556777
0.00525265
0.0051402
0.00512314
0.00594433
0.00558771
0.00538009
0.00533326
0.00534921
0.00581123
0.00557163
0.00546402
0.00547916
0.0055285
0.00568199
0.00553673
0.00551121
0.00557781
0.00565742
0.0055685
0.00549258
0.00552802
0.00563374
0.00573956
0.00547206
0.00544321
0.00552068
0.00565489
0.00578367
0.00539073
0.00539162
0.00549665
0.00565184
0.00580171
0.00531948
0.00534027
0.00546403
0.00563595
0.00580641
0.0052618
0.00529268
0.00542948
0.00561587
0.00580701
0.00520596
0.00524627
0.00539469
0.00559378
0.00580456
0.00513281
0.00518447
0.00534416
0.00555687
0.0057854
0.00503257
0.00508398
0.00525284
0.00547804
0.00572198
0.00487095
0.00492679
0.00510211
0.00533186
0.00558424
0.00465696
0.00471586
0.00488686
0.00511207
0.00536747
0.00445254
0.00450773
0.00466446
0.0048785
0.00513446
0.00438541
0.00443475
0.0045652
0.00474517
0.00496075
0.00465971
0.00467835
0.00474625
0.00483902
0.00494139
0.00859131
0.00825542
0.00795137
0.00763224
0.00726589
0.00547846
0.00481501
0.00416668
0.00354996
0.00297837
0.00248139
0.00229434
0.00210395
0.00191259
0.0017231
0.00538747
0.00478948
0.00418653
0.00360588
0.00307087
0.00148674
0.00137144
0.00116785
0.00098578
0.00115844
0.00284889
0.00265321
0.00250901
0.00259806
0.00276896
0.00313859
0.00428313
0.00389876
0.00350609
0.003357
0.00344298
0.00364603
0.00517416
0.00473736
0.00413272
0.00383088
0.00380964
0.00390652
0.00574983
0.00525432
0.00453187
0.00411131
0.00399753
0.00402016
0.00613805
0.00560972
0.0048173
0.00431011
0.00412595
0.00409818
0.00646298
0.00591138
0.00507734
0.00450883
0.00427417
0.00421265
0.00622798
0.00536086
0.00474846
0.00447872
0.00439397
0.00658559
0.00567684
0.00503191
0.0047394
0.0046389
0.00695392
0.00599707
0.0053348
0.00503344
0.00492574
0.00724236
0.00626383
0.00561605
0.00532689
0.00522417
0.00733839
0.00641838
0.00583536
0.00558644
0.0055038
0.00722358
0.00644419
0.00597342
0.00578984
0.00574116
0.00698892
0.00637936
0.00603833
0.00592975
0.0059225
0.00672052
0.0062684
0.00604705
0.00600841
0.00604338
0.00646477
0.0061388
0.0060136
0.0060329
0.00610751
0.00623999
0.00600457
0.00594931
0.00601351
0.00612423
0.00604623
0.00587081
0.00586306
0.00596138
0.00610482
0.00587944
0.00574098
0.00576357
0.00588792
0.00606092
0.00572951
0.00561547
0.00565847
0.00580301
0.00600252
0.00560251
0.0054932
0.00555028
0.00571198
0.00593454
0.0054668
0.00535978
0.00543177
0.00561251
0.00585474
0.00529103
0.00520148
0.00529463
0.0054932
0.00575414
0.00508861
0.00502434
0.0051376
0.00534969
0.00562388
0.00484712
0.00481953
0.00495256
0.00517477
0.00545795
0.00458965
0.00459608
0.00474503
0.00497804
0.00527535
0.00438071
0.00441952
0.00458685
0.00484128
0.00516968
0.00436435
0.00442775
0.00459771
0.0048473
0.00516553
0.0047521
0.00479825
0.00490553
0.00505272
0.0052264
0.00945665
0.00932021
0.00917408
0.0089675
0.00866483
0.00560505
0.00496695
0.0043393
0.00373826
0.00317788
0.00253621
0.00234725
0.00215446
0.00196216
0.00177295
0.00550798
0.00493814
0.00435789
0.00379329
0.00327104
0.00190031
0.00170041
0.00145943
0.00132917
0.00178292
0.00347648
0.00317977
0.00304091
0.00318705
0.00343954
0.00513038
0.00451875
0.0040798
0.00396
0.00408029
0.00428193
0.00614081
0.00538977
0.00470465
0.00440665
0.00439396
0.00447337
0.00673508
0.00591648
0.00509043
0.0046555
0.00453608
0.00453457
0.00713474
0.00629732
0.00538186
0.00484729
0.00465094
0.00459976
0.00750125
0.0066569
0.00567792
0.00506911
0.00481872
0.00473712
0.00794829
0.00706523
0.00602158
0.00535181
0.00506118
0.00495844
0.00753692
0.00640621
0.00568014
0.00535776
0.00523937
0.00801687
0.00678245
0.00601133
0.00566952
0.00554377
0.00836233
0.00706851
0.00629041
0.0059534
0.00583463
0.0084241
0.00718995
0.00647216
0.00617497
0.00608165
0.00819946
0.00713792
0.00654403
0.00631801
0.00626717
0.00782655
0.0069747
0.00652733
0.00638471
0.00638556
0.00742013
0.00676087
0.00644904
0.00638579
0.00644004
0.00703779
0.00653193
0.00632962
0.00633427
0.0064396
0.00670006
0.00630512
0.00618363
0.00624285
0.00639477
0.0064051
0.0060854
0.00602004
0.00612129
0.00631393
0.00614572
0.00587351
0.00584614
0.00597795
0.0062043
0.00590591
0.00566474
0.00566381
0.005819
0.00607161
0.00569812
0.00546168
0.00547666
0.00564955
0.00592034
0.00548895
0.00525622
0.00528528
0.00546964
0.00575497
0.00524964
0.00504504
0.00509383
0.00528871
0.00558316
0.00500079
0.00483794
0.00490964
0.0051153
0.00541618
0.00473349
0.0046311
0.00473233
0.004953
0.00526422
0.00447755
0.00443823
0.00457533
0.00482446
0.005165
0.00429774
0.0043298
0.00452219
0.00483067
0.00523704
0.00433728
0.00443175
0.00466361
0.0050085
0.00545591
0.00481801
0.00490893
0.00507469
0.0052978
0.00556781
0.0104491
0.0105814
0.0106551
0.0106073
0.0103922
0.00565118
0.00503231
0.00442096
0.00383209
0.00327966
0.00257531
0.00238329
0.0021883
0.00199358
0.00180314
0.00555708
0.00500662
0.00444004
0.00388365
0.00336348
0.00238295
0.00209759
0.00186252
0.00189737
0.00265446
0.0041162
0.0037379
0.00364527
0.00384265
0.00416711
0.00593812
0.00514384
0.00467444
0.00459507
0.0047441
0.0070101
0.00601248
0.00527051
0.00499498
0.00499346
0.0050598
0.00758885
0.00651669
0.0056251
0.00520123
0.0050874
0.00507422
0.00797944
0.00689318
0.00590897
0.00537946
0.0051915
0.00513739
0.00837514
0.00727848
0.00622572
0.00561405
0.00537613
0.0053
0.0088997
0.00774067
0.00660475
0.00591884
0.0056403
0.00554738
0.0095923
0.00828033
0.00702165
0.00625906
0.00594322
0.00583634
0.0088121
0.00740816
0.00657853
0.00623699
0.00612482
0.0091607
0.00766793
0.00681789
0.00647879
0.00637806
0.00916493
0.00772534
0.00693682
0.00664083
0.0065727
0.0088359
0.00758555
0.00693372
0.00671658
0.00669972
0.00834422
0.00733088
0.00684157
0.00671687
0.00676059
0.00782135
0.00703134
0.00669324
0.00665696
0.00676231
0.00733386
0.00672603
0.00651084
0.00655027
0.00671335
0.00690562
0.006432
0.00630736
0.00640599
0.00661965
0.00653442
0.00615109
0.00608803
0.00622906
0.00648353
0.00621086
0.00588229
0.00585695
0.00602448
0.00630815
0.00592191
0.00562248
0.00561608
0.00579808
0.00609896
0.00568129
0.00537528
0.0053727
0.00555744
0.00586577
0.00544885
0.00513097
0.00513215
0.0053163
0.00562505
0.00518764
0.00489006
0.00490561
0.00509218
0.00539878
0.00491854
0.00467051
0.00471064
0.0049056
0.00521274
0.00464435
0.00447684
0.00455526
0.00477123
0.00509286
0.00440204
0.00432683
0.00446286
0.00472988
0.00510136
0.00425428
0.00429384
0.00452719
0.004896
0.00536805
0.00432935
0.00447382
0.00478883
0.00524641
0.00582998
0.00487238
0.00502637
0.00527305
0.00560031
0.00600547
0.0115492
0.0120115
0.0123663
0.0125252
0.0124254
0.00567872
0.00506869
0.00446393
0.00387781
0.00332406
0.00261012
0.00241222
0.00221304
0.00201385
0.0018192
0.00559163
0.00504933
0.00448431
0.00392287
0.00338934
0.00294417
0.00260223
0.00242851
0.00268886
0.00367465
0.00475267
0.00433688
0.00430615
0.00455129
0.00492958
0.00669407
0.00577061
0.00530782
0.0052573
0.00542897
0.00777202
0.0066055
0.00585667
0.00559898
0.00560927
0.00831868
0.0070716
0.00616951
0.00575703
0.00565603
0.00564846
0.00868962
0.00742438
0.00643181
0.00591455
0.00574796
0.00571443
0.0090971
0.00780402
0.00673486
0.0061439
0.00593527
0.00589023
0.00966669
0.0082742
0.00710249
0.00643935
0.00619274
0.00613603
0.0104175
0.00882056
0.0074977
0.00675205
0.00646809
0.00640056
0.0111956
0.00933494
0.00784303
0.00702321
0.00671591
0.00664734
0.00962787
0.00804079
0.00720068
0.0069021
0.00685039
0.00954558
0.00802537
0.00725545
0.00700845
0.00699537
0.00912213
0.00781697
0.0071958
0.00703516
0.00707823
0.00855168
0.00750849
0.00705909
0.00699505
0.00710155
0.00796967
0.00716907
0.00687589
0.00690124
0.00707032
0.00743952
0.00683274
0.00666285
0.00676175
0.00698756
0.00697867
0.00651067
0.00642831
0.00657987
0.00685261
0.00658044
0.00620084
0.00617217
0.00635604
0.00666278
0.00623129
0.00589874
0.00589435
0.00609347
0.0064198
0.00592013
0.00560249
0.00560181
0.00580082
0.00613175
0.0056528
0.00531295
0.00530336
0.00549188
0.00581603
0.00540413
0.00502912
0.00501234
0.00518882
0.00550027
0.00513297
0.00475944
0.00474924
0.00491853
0.00521548
0.00485812
0.00453098
0.00454273
0.00471551
0.00500628
0.00458913
0.00435518
0.00441061
0.00461136
0.00492521
0.00436422
0.00425165
0.00438984
0.004673
0.00506754
0.00424098
0.0042912
0.00456863
0.0049889
0.00550781
0.00432613
0.00452327
0.00491446
0.00545455
0.00610716
0.00491874
0.0051558
0.00552314
0.00604881
0.00667449
0.0126978
0.0135212
0.0141688
0.014455
0.0143964
0.00572631
0.00511487
0.0045064
0.00391278
0.00334719
0.00264966
0.00244268
0.00223633
0.00203076
0.00182844
0.00564739
0.0051029
0.00452786
0.00394729
0.00338514
0.00361508
0.00325005
0.00318618
0.00367584
0.00480855
0.00538661
0.00496684
0.0050042
0.00530478
0.00571523
0.00741398
0.00640591
0.00596855
0.00594121
0.00613006
0.00845869
0.00718656
0.00646203
0.00622246
0.00624348
0.00895219
0.00758995
0.00671059
0.00633293
0.00624661
0.00928424
0.00788932
0.00691975
0.00646299
0.00632082
0.00632721
0.00967661
0.00822938
0.00718162
0.00666609
0.00648971
0.00649058
0.0102467
0.0086634
0.00750295
0.00691939
0.00671226
0.00670557
0.0109933
0.00916522
0.00784065
0.00717475
0.00693997
0.00692913
0.0117271
0.00961677