/*--------------------------------*- C++ -*----------------------------------*\
| =========                 |                                                 |
| \\      /  F ield         | OpenFOAM: The Open Source CFD Toolbox           |
|  \\    /   O peration     | Version:  2.3.1                                 |
|   \\  /    A nd           | Web:      www.OpenFOAM.org                      |
|    \\/     M anipulation  |                                                 |
\*---------------------------------------------------------------------------*/
FoamFile
{
    version     2.0;
    format      ascii;
    class       volScalarField;
    location    "600";
    object      nut;
}
// * * * * * * * * * * * * * * * * * * * * * * * * * * * * * * * * * * * * * //

dimensions      [0 2 -1 0 0 0 0];

internalField   nonuniform List<scalar> 
6852
(
0.00325788
0.00344301
0.00366193
0.00390805
0.0041733
0.00443939
0.00154764
0.00161593
0.00169956
0.00179739
0.00190981
0.00203455
0.00145912
0.00151171
0.00157666
0.00165467
0.00174909
0.00186653
0.00132568
0.00136531
0.00141403
0.00147179
0.00154181
0.00163014
0.00128825
0.00133003
0.00137949
0.00143495
0.00149782
0.00156889
0.00147601
0.00152379
0.00157983
0.00164554
0.00171878
0.00164324
0.00168562
0.00173737
0.00180008
0.00187201
0.0018347
0.00186971
0.0019142
0.00197005
0.00203695
0.00204928
0.00207659
0.00211247
0.00215891
0.00221724
0.00228579
0.00230498
0.0023311
0.00236593
0.00241231
0.00254869
0.00255916
0.00257435
0.00259547
0.00262682
0.00284725
0.002849
0.0028531
0.00286059
0.0028776
0.00317359
0.00316546
0.00315686
0.00314905
0.00314981
0.00350427
0.00348512
0.0034625
0.00343801
0.00342024
0.00379135
0.00376378
0.00373092
0.0036914
0.00365449
0.0039886
0.00395159
0.00390757
0.00385762
0.00380541
0.00408881
0.00404251
0.0039878
0.00392667
0.00385914
0.00409738
0.00404259
0.00397836
0.00390681
0.00382568
0.00402894
0.00396672
0.00389443
0.0038139
0.00372162
0.00390286
0.00383415
0.00375511
0.00366713
0.00356614
0.00373989
0.00366505
0.00357966
0.00348538
0.00337764
0.00355684
0.00347642
0.00338596
0.00328556
0.00317164
0.00336792
0.00328117
0.00318511
0.00307945
0.00296106
0.00318303
0.00308885
0.00298624
0.00287471
0.002752
0.00300811
0.00290521
0.00279495
0.00267695
0.00255012
0.00284588
0.00273308
0.00261425
0.00248948
0.00235913
0.00269676
0.00257329
0.00244553
0.00231438
0.00218172
0.00255993
0.00242578
0.00228962
0.00215335
0.00202019
0.00243444
0.00229063
0.00214762
0.00200829
0.0018766
0.00232022
0.00216892
0.00202152
0.00188151
0.00175271
0.00221889
0.00206318
0.00191421
0.00177545
0.00164982
0.00213478
0.00197771
0.00182935
0.00169261
0.00156931
0.00207321
0.00191718
0.00177044
0.00163536
0.00151314
0.00203943
0.00188428
0.00173802
0.00160285
0.00147992
0.0020267
0.00186824
0.00171834
0.00157929
0.00145208
0.00200085
0.00183815
0.00168233
0.00153794
0.00140658
0.00194601
0.00178296
0.00162945
0.00148677
0.00135549
0.00186377
0.0017122
0.00156697
0.00143049
0.00130385
0.0017785
0.00163936
0.00150376
0.00137507
0.001255
0.00174001
0.00160916
0.00147771
0.0013505
0.00123074
0.00387968
0.00359654
0.00329337
0.00298866
0.00269444
0.00147561
0.00154902
0.00163731
0.00173955
0.00185376
0.00161929
0.00160347
0.00158376
0.00155899
0.0015312
0.00150248
0.001895
0.00187587
0.00184833
0.00181149
0.00176304
0.00170169
0.00197408
0.0019447
0.0019011
0.0018414
0.00176181
0.00167465
0.00305924
0.0029761
0.00286437
0.00271445
0.0025019
0.00221809
0.00453622
0.00444519
0.00431551
0.00413737
0.00385171
0.00342179
0.00549663
0.00535966
0.00516552
0.00483675
0.00432285
0.00608366
0.00594542
0.00574738
0.00540453
0.00485799
0.00630909
0.00617366
0.00598042
0.00564582
0.00510195
0.00620429
0.00607484
0.0058928
0.0055838
0.00506972
0.00573189
0.00560935
0.00544001
0.00516153
0.00469529
0.00496908
0.0048606
0.00471315
0.00447704
0.00408447
0.00419845
0.00411131
0.00399451
0.00381029
0.00350762
0.00354548
0.0034814
0.00339612
0.00326139
0.00304042
0.00295507
0.00294086
0.00292232
0.002842
0.00268542
0.00248958
0.00248308
0.00247577
0.00244393
0.00235418
0.00224697
0.0022373
0.00222545
0.00219892
0.00213487
0.00213854
0.00212534
0.00210868
0.00208045
0.00202744
0.00209628
0.00208001
0.00205951
0.00202922
0.00198176
0.00208321
0.00206448
0.00204109
0.00200913
0.00196462
0.0020813
0.00206068
0.00203521
0.00200197
0.00195895
0.00208293
0.00206082
0.00203377
0.00199944
0.00195699
0.00208571
0.00206245
0.00203391
0.00199847
0.00195575
0.00208913
0.00206511
0.00203554
0.00199833
0.00195466
0.0020938
0.00206896
0.00203828
0.00199985
0.00195434
0.00210029
0.00207449
0.00204246
0.00200244
0.0019553
0.00210884
0.00208197
0.00204837
0.00200649
0.00195751
0.0021193
0.00209139
0.00205612
0.00201228
0.00196148
0.00213136
0.0021025
0.00206569
0.00202006
0.00196784
0.00214426
0.00211487
0.00207701
0.00203023
0.00197756
0.00215733
0.00212811
0.00209023
0.00204368
0.00199257
0.00216882
0.00214165
0.00210603
0.0020626
0.00201703
0.00217797
0.00215673
0.00212787
0.00209303
0.00205973
0.00218529
0.00217726
0.00216348
0.00214633
0.00213395
0.00220736
0.00222384
0.00223462
0.00223904
0.0022399
0.00227404
0.00231698
0.00233444
0.00233925
0.00234366
0.00236571
0.00239086
0.0024037
0.00241091
0.00241746
0.00235985
0.00238484
0.00240686
0.00242793
0.00244818
0.00226736
0.00231772
0.00236401
0.00240586
0.00244189
0.00190992
0.00201602
0.00208402
0.00214543
0.00219929
0.00183315
0.00168784
0.00154273
0.00140717
0.00128386
0.00149867
0.00156975
0.00165663
0.00175986
0.00187835
0.00166523
0.00164916
0.00162807
0.00160012
0.00156563
0.00163239
0.00162437
0.00161316
0.00160337
0.00159378
0.00158431
0.00136845
0.00135238
0.00132771
0.0012945
0.00125604
0.00123492
0.00263867
0.00255284
0.00243504
0.0022567
0.00199863
0.00161416
0.00509808
0.00501644
0.00488382
0.00466669
0.00423808
0.00343563
0.0071925
0.00711916
0.0069896
0.00676207
0.00623956
0.00518358
0.00842427
0.00828418
0.00803737
0.00745613
0.0062685
0.00907166
0.00891033
0.00863764
0.00802411
0.0067798
0.00897423
0.00878734
0.00849024
0.00787793
0.00666504
0.00781225
0.00759239
0.00726619
0.00665497
0.00554874
0.00642678
0.00621218
0.00590512
0.00531995
0.00428196
0.00547196
0.00527515
0.00499343
0.00444814
0.00357361
0.00489962
0.00472452
0.00446962
0.00398193
0.00325958
0.00452837
0.00438369
0.00416655
0.00374367
0.00313259
0.00422375
0.0041149
0.00394143
0.00359012
0.00307261
0.00378985
0.00376635
0.003696
0.00345462
0.00302084
0.00337624
0.00340044
0.00339496
0.00325275
0.00292006
0.0030628
0.0031062
0.00312671
0.0030361
0.00276974
0.00284591
0.0028933
0.00291796
0.00284566
0.00261601
0.00269974
0.00274355
0.0027616
0.00269041
0.00247934
0.00260103
0.00263668
0.00264311
0.00256492
0.00236323
0.00253201
0.00255709
0.00254912
0.00246219
0.00226482
0.00248039
0.00249339
0.0024698
0.00237277
0.00218184
0.00243769
0.00243792
0.00239883
0.00229247
0.0021086
0.00239818
0.00238577
0.00233256
0.0022191
0.002044
0.00235844
0.00233435
0.00226943
0.00215202
0.0019877
0.00231713
0.00228302
0.00220947
0.00209157
0.00193982
0.00227497
0.00223276
0.00215383
0.00203865
0.00190063
0.00223404
0.00218558
0.00210421
0.0019943
0.00187051
0.00219725
0.00214385
0.00206237
0.00195955
0.00185002
0.00216653
0.0021094
0.0020298
0.00193552
0.00184036
0.00214147
0.00208322
0.00200804
0.00192421
0.00184424
0.00212242
0.00206744
0.00200044
0.00192985
0.00186667
0.00211574
0.00206954
0.00201461
0.00195939
0.00191338
0.00213614
0.00210102
0.00205853
0.0020187
0.00198993
0.00219499
0.00217016
0.00214173
0.00211788
0.00210533
0.00230519
0.00229158
0.0022759
0.0022644
0.00226167
0.00246363
0.00245812
0.00245244
0.00245099
0.00245593
0.0022524
0.00230194
0.00234484
0.0023837
0.00241906
0.00172952
0.00159289
0.00146889
0.0013575
0.00125828
0.00160558
0.00168429
0.00178023
0.0018851
0.00199449
0.00163083
0.00161771
0.00159961
0.00154009
0.00145654
0.00156106
0.00156703
0.00157561
0.00159882
0.0016312
0.00107288
0.00106953
0.00106265
0.00105673
0.00105831
0.00109673
0.00202607
0.00194196
0.00183342
0.00165164
0.00142071
0.0010746
0.00513421
0.00504944
0.0049042
0.00462099
0.00402633
0.00275755
0.00797132
0.00791975
0.00780157
0.00752954
0.00674619
0.00480032
0.00944975
0.0093947
0.00926621
0.00897268
0.0080909
0.00589644
0.00984248
0.00976266
0.00960257
0.00927779
0.00838166
0.00620463
0.00877815
0.0085807
0.00823936
0.00743722
0.00560722
0.00579701
0.0055632
0.00522294
0.00456323
0.00339479
0.003715
0.00354741
0.00331715
0.00282393
0.00204448
0.00301865
0.0028778
0.00267595
0.00225569
0.00176896
0.00286558
0.00273008
0.00252266
0.00213175
0.00175285
0.00297142
0.0028289
0.00259953
0.00219279
0.00180655
0.00321502
0.00305071
0.00277307
0.00231465
0.00189204
0.00347998
0.00329345
0.00297176
0.00245757
0.00199378
0.00369492
0.00348943
0.00313165
0.00259207
0.00209946
0.00383402
0.00361482
0.00323765
0.00269387
0.0021966
0.0039024
0.00367214
0.00328734
0.00275785
0.0022742
0.00391594
0.00367531
0.00328961
0.00278358
0.00232298
0.00388926
0.00363824
0.00325529
0.00277597
0.00234141
0.00383236
0.00357116
0.00319329
0.00274135
0.00233294
0.00375106
0.00348083
0.00311015
0.00268538
0.00230301
0.00364862
0.00337174
0.0030108
0.0026132
0.0022572
0.00352734
0.0032474
0.00289938
0.00252956
0.00220087
0.00338967
0.00311132
0.0027799
0.00243899
0.00213881
0.00323911
0.00296752
0.00265653
0.00234582
0.00207514
0.00308057
0.00282077
0.00253364
0.00225409
0.00201327
0.00292049
0.00267652
0.00241562
0.00216741
0.0019559
0.00276575
0.0025401
0.00230643
0.00208871
0.00190514
0.00262373
0.00241657
0.0022094
0.00202034
0.00186275
0.00249552
0.00230814
0.00212647
0.00196404
0.00183044
0.00238325
0.00221675
0.00205946
0.00192178
0.00181054
0.00229053
0.00214523
0.00201113
0.00189654
0.00180643
0.00222218
0.00209764
0.00198564
0.00189302
0.00182349
0.00218625
0.00208216
0.00199215
0.00192129
0.00187238
0.00219731
0.00211834
0.00205301
0.00200591
0.00197908
0.00229639
0.00225004
0.00221452
0.0021922
0.00218421
0.00218827
0.00221263
0.00223642
0.00226088
0.00228656
0.00166582
0.00153469
0.00141789
0.00131444
0.00122335
0.00162611
0.0017052
0.00179754
0.00189615
0.00199466
0.00139541
0.00139973
0.00140767
0.00142097
0.0014419
0.00158529
0.0016064
0.0016328
0.0016742
0.00170028
0.000984205
0.000985129
0.000983785
0.000985812
0.000999476
0.00164365
0.00156816
0.00147976
0.00131563
0.00114323
0.000900199
0.00540403
0.00530702
0.0051448
0.00477219
0.00401743
0.00232857
0.00899372
0.00897086
0.00887647
0.00854161
0.00739259
0.00413232
0.0101938
0.0101795
0.0100901
0.00976056
0.00852311
0.0049173
0.00972934
0.00968911
0.00957462
0.0092576
0.0081693
0.00494399
0.00735084
0.00726222
0.00710367
0.00681395
0.00605802
0.00401233
0.00286447
0.0027276
0.00254175
0.00219736
0.00162891
0.00168104
0.00163361
0.00157349
0.00146209
0.00136379
0.001717
0.00166337
0.00158152
0.00149396
0.0015357
0.00189532
0.00181552
0.00169045
0.00160179
0.00163453
0.00217012
0.00202994
0.00184887
0.00171746
0.00166478
0.00239221
0.00217861
0.00194435
0.00176949
0.00165697
0.00256732
0.0022746
0.00198707
0.00177627
0.00163186
0.00268088
0.00232594
0.00199872
0.00176093
0.00160409
0.00273512
0.00234092
0.00199181
0.00174105
0.00158138
0.0027389
0.00232771
0.00197415
0.00172347
0.00156817
0.0027046
0.00229491
0.00195122
0.0017107
0.00156492
0.0026442
0.00225027
0.00192698
0.00170346
0.00157041
0.00256805
0.00220012
0.00190387
0.00170084
0.00158103
0.00248439
0.00214894
0.00188274
0.0017005
0.00159156
0.00239936
0.00209952
0.00186355
0.00170076
0.00160069
0.00231713
0.0020532
0.00184575
0.00170036
0.00160775
0.00224
0.00201017
0.00182853
0.00169854
0.00161263
0.00216897
0.00197006
0.00181128
0.00169507
0.00161578
0.00210406
0.00193235
0.00179379
0.00169038
0.0016182
0.00204586
0.00189734
0.00177677
0.00168571
0.00162149
0.00199473
0.00186588
0.00176174
0.00168308
0.00162791
0.00195395
0.00184079
0.00175151
0.00168542
0.00164042
0.00192264
0.00182426
0.0017494
0.0016964
0.00166261
0.00190146
0.00181898
0.00175934
0.00172028
0.00169861
0.00189471
0.00182979
0.0017865
0.00176197
0.0017527
0.00190775
0.00186213
0.00183603
0.00182594
0.00182829
0.00194942
0.00192147
0.00191129
0.00191407
0.00192598
0.00200703
0.00200229
0.00200944
0.00202391
0.00204258
0.0020695
0.00208998
0.00211515
0.00214162
0.00216711
0.00199917
0.00203957
0.00208165
0.00212145
0.00215599
0.00178971
0.00164082
0.00150331
0.00137813
0.00126564
0.0032905
0.00347386
0.00367693
0.00388429
0.00407995
0.00146032
0.00154126
0.00163156
0.00172528
0.00181777
0.00134974
0.00143488
0.00152825
0.00162752
0.00173001
0.000919795
0.000918744
0.000915463
0.000911613
0.000908801
0.00161477
0.00156458
0.0015079
0.00137635
0.00124842
0.00634683
0.00626722
0.00613278
0.00573843
0.00487841
0.00244895
0.0106391
0.0106542
0.010602
0.0102035
0.00857791
0.00363511
0.0111995
0.0112406
0.0112218
0.0108805
0.00927147
0.00399336
0.0095057
0.00952573
0.00950119
0.00926548
0.00815515
0.00387887
0.00557824
0.0055241
0.00542808
0.00523974
0.00472363
0.00290347
0.00130233
0.00127624
0.00124193
0.00119576
0.00111798
0.000982281
0.00141986
0.00141015
0.00139857
0.00147701
0.00182942
0.00164187
0.00168326
0.00173748
0.00195193
0.00235726
0.00189954
0.00206698
0.00224348
0.0024333
0.00266766
0.00196142
0.00213407
0.00232842
0.00253592
0.00273377
0.00192065
0.00209461
0.00229609
0.0025103
0.00270604
0.00191496
0.00207579
0.00226403
0.0024651
0.00264915
0.0019297
0.00207423
0.00224338
0.00242379
0.00258993
0.00195599
0.00208247
0.00223099
0.00238954
0.00253627
0.00199167
0.00209925
0.00222664
0.00236325
0.00249032
0.00203451
0.00212288
0.00222914
0.0023441
0.00245174
0.00208288
0.00215181
0.00223703
0.00233069
0.00241932
0.00213548
0.00218464
0.00224877
0.0023212
0.00239073
0.00219138
0.00222022
0.00226298
0.00231389
0.00236357
0.00224986
0.00225747
0.00227829
0.00230731
0.00233677
0.00231005
0.00229504
0.00229304
0.0022997
0.00230872
0.00237065
0.00233112
0.00230521
0.00228911
0.00227767
0.00242949
0.00236336
0.00231254
0.0022735
0.0022419
0.00248356
0.00238883
0.00231254
0.00225087
0.00219975
0.00252898
0.00240428
0.00230266
0.0022192
0.00214958
0.00255961
0.00240526
0.00227982
0.00217625
0.0020896
0.00257203
0.00238858
0.00224151
0.00211996
0.00201807
0.00254796
0.00234555
0.00218302
0.0020475
0.00193299
0.00248775
0.00227541
0.00210313
0.00195766
0.00183331
0.00239375
0.00217903
0.00200209
0.00185048
0.0017192
0.00226536
0.00205704
0.00188133
0.00172789
0.00159291
0.00209495
0.00190887
0.00174449
0.00159574
0.00146045
0.00193809
0.00176611
0.00160729
0.00146147
0.0013304
0.0018366
0.00167711
0.00152585
0.00138369
0.00125162
0.0017878
0.00164089
0.00149824
0.00136237
0.00123517
0.00393585
0.00361321
0.00329154
0.00297865
0.002681
0.000839074
0.000839672
0.000840526
0.000841842
0.000845307
0.00239447
0.00237036
0.00234358
0.00225741
0.00215921
0.00890977
0.00888783
0.00883234
0.00853109
0.00750443
0.0130111
0.0130523
0.013044
0.0126489
0.0106437
0.00366003
0.0128926
0.01297
0.0130155
0.0127086
0.0108551
0.00376697
0.0102876
0.0103591
0.0104238
0.0102983
0.00924615
0.00369712
0.00427167
0.00425677
0.00422943
0.00415449
0.00394641
0.0025911
0.000861709
0.000860065
0.000858049
0.000855562
0.000852808
0.000851256
0.000600548
0.000600643
0.000600735
0.000600877
0.000601079
0.00602407
0.00602331
0.00602337
0.00599777
0.00591118
0.013222
0.0132233
0.0132106
0.0130479
0.0121112
0.015296
0.0153191
0.0153221
0.0150941
0.0136618
0.0149575
0.0150086
0.0150529
0.0148896
0.0135685
0.00625409
0.0130616
0.0131265
0.0132007
0.013163
0.0123079
0.00617616
0.00616811
0.00617911
0.00619382
0.0061895
0.00611602
0.00458296
0.000598879
0.000598835
0.000598727
0.000598626
0.000598504
0.000598815
0.00116688
0.00104336
0.000917305
0.00078827
0.000655479
0.000587156
0.000529656
0.000471156
0.000411514
0.000350022
0.00116442
0.0010432
0.000919339
0.000792941
0.000663944
0.000565635
0.000542379
0.000521057
0.000522238
0.000557417
0.000633704
0.00030581
0.000305079
0.000294045
0.000289153
0.000302602
0.000338325
0.000357493
0.000367127
0.00035964
0.000357573
0.000371592
0.000396973
0.000423252
0.000416711
0.000412089
0.000420683
0.00044152
0.000470059
0.000460718
0.000454635
0.000461858
0.000480638
0.000516897
0.000504149
0.000495339
0.000499984
0.000516303
0.000563712
0.000547096
0.000535125
0.000536647
0.000550586
0.000611079
0.000590074
0.000574674
0.000572723
0.000584078
0.000658996
0.000633201
0.000614201
0.000608577
0.000616906
0.000706726
0.000676072
0.000653492
0.000644219
0.000649142
0.000752684
0.000717725
0.000692007
0.000679432
0.000680797
0.00079466
0.000756957
0.00072912
0.000713927
0.000711872
0.000830976
0.000792974
0.00076448
0.000747533
0.000742406
0.00086211
0.000826203
0.000798384
0.000780379
0.000772497
0.000890991
0.000858271
0.000831691
0.000812835
0.000802217
0.000920719
0.000890922
0.000865273
0.000845183
0.000831346
0.000953785
0.000925504
0.000899682
0.000877387
0.000859387
0.000991655
0.000962663
0.000934948
0.000909023
0.000885706
0.0010343
0.00100206
0.000970388
0.000939175
0.000909258
0.00108062
0.00104244
0.00100458
0.00096644
0.000928699
0.00112638
0.00108103
0.00103523
0.00098901
0.000942672
0.001166
0.00111403
0.00105962
0.00100517
0.00095041
0.00119627
0.00113832
0.00107581
0.00101425
0.000952719
0.0012157
0.00115212
0.00108291
0.001017
0.00095272
0.00122413
0.00115521
0.00108219
0.00101706
0.000954835
0.00121972
0.00114639
0.00107679
0.00101691
0.000960325
0.00120139
0.00112743
0.00106461
0.00101147
0.000961135
0.00115498
0.00108989
0.00103534
0.000987802
0.0009416
0.00108015
0.00102362
0.000974968
0.000930443
0.000885569
0.00216073
0.00204558
0.00194495
0.00185039
0.00175255
0.000653412
0.000595839
0.00053688
0.00047673
0.000415478
0.00073553
0.00070973
0.000679762
0.000645136
0.000605337
0.000652197
0.000596392
0.000538739
0.000479844
0.000420265
0.000299052
0.000286931
0.000272606
0.000267807
0.000271602
0.000302972
0.00105989
0.0011028
0.00103172
0.000927043
0.000853434
0.000805086
0.00144712
0.00157206
0.00149308
0.00134353
0.00123134
0.00118558
0.00165442
0.00183241
0.00177644
0.00162621
0.00152064
0.00148219
0.00197819
0.00195074
0.00181475
0.00171784
0.00168265
0.00205286
0.00204651
0.00192601
0.00183685
0.00180195
0.0020845
0.0020919
0.00198553
0.00190264
0.00186595
0.00209527
0.00210926
0.00201566
0.0019384
0.00189926
0.00209387
0.00211335
0.00203214
0.001961
0.0019201
0.00208462
0.00211192
0.00204385
0.00198024
0.00193933
0.00207115
0.00210706
0.0020536
0.00199965
0.00196126
0.0020524
0.0020972
0.00205997
0.00201821
0.00198525
0.00202725
0.0020799
0.0020598
0.00203257
0.00200783
0.00199696
0.00205409
0.00205052
0.0020391
0.00202465
0.00196177
0.00201951
0.00203073
0.00203503
0.00203189
0.00192041
0.00197614
0.00199996
0.00201878
0.00202721
0.001872
0.00192436
0.00195851
0.00199016
0.00200998
0.00181665
0.00186514
0.00190756
0.00195032
0.00198119
0.00175579
0.00180027
0.00184931
0.00190189
0.00194374
0.00169091
0.00173218
0.00178702
0.00184885
0.00190215
0.00162405
0.00166391
0.00172483
0.00179629
0.00186221
0.00155785
0.00159876
0.00166741
0.00174987
0.00183004
0.00149512
0.00154022
0.00161891
0.00171412
0.00180978
0.0014383
0.00148896
0.00157367
0.00167925
0.00179877
0.00138679
0.00144274
0.00151881
0.00164384
0.00178434
0.00133195
0.00137027
0.00145628
0.00159225
0.0017427
0.00125971
0.00128746
0.00137277
0.00149892
0.00164193
0.00117155
0.00119985
0.00126677
0.00136099
0.00147107
0.00110236
0.00111714
0.00115256
0.0012028
0.00126314
0.00097395
0.000935194
0.000900068
0.00086587
0.000830104
0.000753715
0.000695932
0.000636358
0.000575475
0.000513646
0.000724486
0.000706995
0.000687063
0.000663987
0.000637233
0.000750525
0.000696122
0.000638999
0.000580155
0.000520593
0.000336825
0.000325179
0.000304246
0.000290376
0.000288027
0.000330657
0.00139003
0.00145563
0.0013238
0.00115906
0.00101658
0.000944092
0.00194121
0.00210323
0.0019351
0.00167331
0.00150166
0.00143278
0.00228721
0.00249263
0.00234133
0.00207047
0.00189673
0.0018316
0.00253562
0.00275113
0.00262664
0.00236262
0.0021867
0.00211748
0.00292746
0.00282377
0.00256798
0.00238722
0.00230776
0.00305287
0.00296344
0.0027136
0.00252592
0.00243346
0.00315079
0.00306798
0.00282114
0.00262643
0.00252135
0.00323628
0.0031495
0.0029031
0.00270352
0.00258869
0.00330492
0.00320997
0.00296417
0.00276441
0.0026446
0.00335322
0.00324497
0.00300434
0.00281147
0.0026926
0.00336932
0.00324915
0.00302229
0.00284477
0.0027329
0.00334718
0.00322196
0.00301856
0.00286406
0.00276416
0.00329412
0.00317038
0.00299717
0.00287003
0.0027849
0.0032222
0.00310473
0.00296385
0.00286433
0.00279431
0.00314111
0.00303348
0.00292335
0.00284872
0.00279244
0.00305813
0.0029621
0.00287876
0.00282483
0.00278014
0.00297733
0.00289308
0.0028317
0.00279412
0.00275877
0.00289948
0.00282683
0.0027829
0.00275794
0.00272993
0.00282047
0.00276252
0.00273263
0.00271735
0.0026949
0.0027295
0.00269805
0.00268036
0.00267244
0.00265376
0.00263684
0.00263205
0.00262479
0.0026218
0.00260465
0.00254862
0.00256119
0.00256206
0.00256142
0.00254337
0.00246174
0.00247765
0.00247804
0.00248198
0.00246454
0.00235816
0.00235836
0.00236326
0.00237769
0.00236571
0.00221847
0.00220494
0.00222615
0.0022548
0.0022533
0.00203178
0.00202669
0.00206806
0.00211599
0.00213661
0.00180516
0.00181887
0.001875
0.00194142
0.00199176
0.00146714
0.00149126
0.00154006
0.00160031
0.00165952
0.000998099
0.000967288
0.000939763
0.000912562
0.000883381
0.000805742
0.000750415
0.000692993
0.000634195
0.000574731
0.000713645
0.000696916
0.000678968
0.000658957
0.00063644
0.000800147
0.000749156
0.000695154
0.000639464
0.0005835
0.00038105
0.000369556
0.000342783
0.000317496
0.000321997
0.000417561
0.00163448
0.00167483
0.00147719
0.0012853
0.00112868
0.001071
0.002333
0.00244313
0.00217082
0.00186163
0.00168794
0.00163019
0.00278554
0.00292248
0.00264292
0.0023109
0.0021268
0.00206477
0.00312636
0.00324906
0.00297723
0.00263285
0.00242926
0.00234803
0.00338433
0.00348448
0.00321441
0.00285558
0.0026256
0.00251693
0.00366255
0.00338896
0.00301296
0.00275533
0.00261922
0.00380343
0.00352193
0.00312832
0.00284725
0.0026891
0.00391746
0.0036213
0.00321252
0.00291644
0.00274433
0.00399771
0.00368495
0.00326806
0.00296843
0.00279145
0.00403974
0.00370548
0.0032934
0.00300365
0.0028307
0.00402308
0.00367675
0.00328739
0.003021
0.00285979
0.00394266
0.00360245
0.00325323
0.00302053
0.00287637
0.00381857
0.00349873
0.00319952
0.00300451
0.00287929
0.00367545
0.00338413
0.00313589
0.00297647
0.00286903
0.00353115
0.00327181
0.00306923
0.00293967
0.00284719
0.00339687
0.00316876
0.00300339
0.0028968
0.00281592
0.00327692
0.00307681
0.00293987
0.00284988
0.00277735
0.00316979
0.00299496
0.00287888
0.00280018
0.0027331
0.00306564
0.00292013
0.00281943
0.00274778
0.0026835
0.00294535
0.00284778
0.0027588
0.00269069
0.00262686
0.00282849
0.00277271
0.00269176
0.0026248
0.00255981
0.00272095
0.00268251
0.00260722
0.00254338
0.00247837
0.00261421
0.00257373
0.00250298
0.00244254
0.00238079
0.00249466
0.00244554
0.00238151
0.00232635
0.00226967
0.00236
0.00230631
0.00225242
0.00220555
0.0021568
0.00222247
0.00217417
0.00213783
0.00210668
0.00207252
0.00206376
0.00203952
0.00203444
0.00203306
0.00202448
0.00162081
0.00163786
0.00167184
0.00171194
0.00174848
0.00104069
0.00102019
0.00100127
0.000981019
0.00095722
0.000829583
0.000777416
0.000723093
0.000667411
0.000611195
0.000715246
0.000696991
0.000678057
0.000657757
0.000635572
0.000822622
0.000775324
0.000724811
0.000672671
0.000620658
0.00043284
0.000415844
0.000383907
0.000352893
0.000382175
0.00188201
0.00184462
0.00158966
0.00139653
0.00125461
0.00121503
0.00273842
0.00270712
0.00234918
0.00203619
0.00188555
0.00184624
0.0032819
0.00325693
0.00286461
0.00251696
0.00234715
0.00229179
0.00368062
0.00362583
0.00321907
0.00283653
0.00262778
0.00253414
0.00397761
0.00389259
0.00346615
0.00304229
0.00278552
0.00264869
0.00419985
0.00409777
0.00364732
0.003181
0.00287945
0.00270701
0.00426055
0.0037841
0.00328029
0.00294502
0.00274876
0.0043858
0.00388168
0.00335017
0.00299579
0.00278741
0.00446731
0.00393452
0.00339016
0.00303265
0.00282258
0.00448768
0.00393189
0.00339545
0.00305143
0.00284892
0.00442276
0.00386604
0.00336322
0.00304845
0.00286119
0.00427369
0.00374456
0.00329809
0.00302368
0.00285671
0.00407414
0.00359186
0.00321205
0.0029809
0.0028355
0.00385926
0.00343223
0.00311711
0.00292526
0.00279979
0.00365345
0.00328106
0.00302104
0.00286121
0.00275268
0.0034695
0.00314496
0.00292768
0.00279203
0.00269716
0.00330977
0.00302431
0.00283818
0.00271994
0.00263563
0.00316977
0.00291684
0.00275257
0.00264636
0.00256986
0.00303368
0.00281801
0.00266969
0.00257162
0.00250067
0.00287261
0.00271786
0.00258526
0.00249453
0.00242757
0.00271535
0.00261302
0.002494
0.0024121
0.0023494
0.00257815
0.00250531
0.00239765
0.00232138
0.00226531
0.00246038
0.00239402
0.00229621
0.00222634
0.00217603
0.00234679
0.00227673
0.00218943
0.00212696
0.00208289
0.00223469
0.00216118
0.00208543
0.00203175
0.00199513
0.00214164
0.00207281
0.0020136
0.00197341
0.00194787
0.00205749
0.00201332
0.0019843
0.00196778
0.00195827
0.00161601
0.00162563
0.00165108
0.00168511
0.00172077
0.00109189
0.00108402
0.00107553
0.0010634
0.00104533
0.000839242
0.000789764
0.000738132
0.000685114
0.000631589
0.000721462
0.00070138
0.000681239
0.000660005
0.000637244
0.000831901
0.000787439
0.000739702
0.000690152
0.00064081
0.000489395
0.000463112
0.000429139
0.000409341
0.000473478
0.00212162
0.0019718
0.00168866
0.00151042
0.00139731
0.00311581
0.0029137
0.00250725
0.00221904
0.00210028
0.00207929
0.00373202
0.00350877
0.00304827
0.00271426
0.00256457
0.00250987
0.0041548
0.00389647
0.00339859
0.00300632
0.00279779
0.00268591
0.00446531
0.00417145
0.00363011
0.00317245
0.0029007
0.00273825
0.00470492
0.00438211
0.00379452
0.00327656
0.00295388
0.00275818
0.00488923
0.00454954
0.00391653
0.00335049
0.00299427
0.00278056
0.00467516
0.00400034
0.0034017
0.00302863
0.00280787
0.0047478
0.00403735
0.00342494
0.0030508
0.00283168
0.00474173
0.00401252
0.00341137
0.00305254
0.00284313
0.0046309
0.00391618
0.00335669
0.00302933
0.00283692
0.00442291
0.00375929
0.00326707
0.00298249
0.00281206
0.00416399
0.00357249
0.00315709
0.0029177
0.00277055
0.00389646
0.00338297
0.00303988
0.00284137
0.00271611
0.00364678
0.00320608
0.00292312
0.00275822
0.00265227
0.00342653
0.00304707
0.00281
0.00267111
0.0025815
0.00323539
0.00290424
0.00270099
0.00258152
0.00250534
0.00306573
0.00277287
0.00259585
0.00249064
0.00242517
0.00290058
0.00264893
0.00249196
0.00239927
0.00234223
0.00271561
0.00253411
0.00239125
0.00230846
0.002258
0.00254413
0.00242468
0.00229459
0.00221751
0.00217442
0.00240385
0.00231934
0.00220236
0.00213209
0.00209406
0.00229213
0.00221842
0.00211407
0.00205125
0.00201823
0.00219315
0.00211834
0.00202729
0.00197269
0.00194498
0.00210184
0.0020241
0.00194674
0.00190176
0.00188113
0.00203466
0.0019617
0.00190342
0.00187414
0.0018662
0.00198479
0.00193648
0.00190831
0.00190167
0.00191032
0.00154935
0.00155493
0.00158057
0.00162093
0.00167041
0.00114782
0.00115509
0.00115913
0.00115657
0.00114482
0.00084281
0.000795108
0.000745237
0.00069386
0.000641843
0.000728958
0.000707136
0.000685555
0.00066344
0.00064006
0.000835721
0.000793042
0.000746828
0.000698516
0.000650009
0.000548108
0.000514395
0.000484629
0.000488642
0.000577621
0.00231416
0.00206975
0.00178985
0.00163605
0.00155101
0.00343117
0.00307971
0.00266112
0.00241199
0.00232503
0.00409547
0.00370122
0.00321018
0.00290348
0.00277021
0.00270886
0.0045215
0.00408381
0.00353334
0.00314746
0.0029387
0.00280711
0.00482417
0.00434134
0.00372723
0.00326077
0.00298456
0.00280609
0.00506024
0.00453239
0.00385553
0.00332446
0.00300298
0.00280127
0.00525039
0.00468298
0.00394803
0.0033708
0.00302348
0.00281191
0.00539222
0.00479493
0.00400919
0.003402
0.00304284
0.00282871
0.00485056
0.00402717
0.00340795
0.00304978
0.0028394
0.0048182
0.00398321
0.00337764
0.0030354
0.00283576
0.00467026
0.00386688
0.00330723
0.00299674
0.00281476
0.00442067
0.00369165
0.00320456
0.00293694
0.0027774
0.00412549
0.00349109
0.00308522
0.0028626
0.00272673
0.00383098
0.00329205
0.00296156
0.00277971
0.00266628
0.00356342
0.00310808
0.00283962
0.0026915
0.00259819
0.00333191
0.0029425
0.00272089
0.00259895
0.002523
0.0031341
0.00279328
0.00260452
0.00250199
0.00244046
0.00296168
0.00265786
0.00248972
0.00240146
0.00235142
0.00279634
0.00253264
0.00237875
0.00229932
0.00225787
0.00260716
0.00241592
0.0022732
0.00219848
0.00216359
0.00242743
0.00230615
0.00217512
0.0021053
0.00207415
0.00228223
0.00220371
0.00208594
0.00202215
0.00199435
0.00217321
0.0021106
0.00200646
0.0019495
0.00192493
0.00208602
0.00202205
0.00193149
0.00188163
0.00186054
0.00201004
0.00193881
0.00186253
0.00182285
0.00180916
0.00195474
0.00188528
0.00183247
0.0018135
0.00181617
0.00190758
0.00186187
0.0018423
0.00185063
0.00187822
0.00146225
0.00146571
0.00149471
0.00154531
0.00161466
0.0012068
0.00123072
0.00124878
0.00125682
0.00125183
0.000844973
0.000798128
0.000749023
0.000698168
0.000646367
0.000736962
0.000713347
0.000690212
0.000667061
0.000643141
0.000838427
0.000796565
0.000750709
0.000702207
0.000652686
0.000609293
0.000572875
0.000553148
0.000581567
0.000679797
0.00245281
0.00215046
0.00189325
0.00176779
0.00170869
0.00366826
0.00322043
0.00281835
0.00260904
0.00254988
0.00435984
0.00385001
0.00336077
0.00308222
0.00295885
0.0047773
0.00420788
0.00363771
0.00326697
0.0030582
0.00291244
0.00506183
0.00442797
0.00377619
0.00332522
0.00305558
0.00287471
0.00528135
0.00458275
0.00385808
0.00335063
0.003048
0.00285543
0.00546281
0.00470445
0.00391663
0.00337094
0.00305192
0.00285572
0.00560229
0.00479502
0.00395358
0.00338243
0.00305669
0.00286064
0.00567545
0.00483155
0.00395378
0.00337321
0.00305044
0.00285926
0.00477669
0.00389681
0.00333269
0.0030264
0.00284628
0.00460656
0.0037739
0.00325824
0.00298339
0.00282051
0.00434121
0.00360084
0.0031584
0.00292483
0.00278319
0.00404204
0.00341094
0.00304723
0.00285595
0.00273625
0.00375367
0.00322723
0.00293395
0.00278039
0.00268153
0.00349771
0.00305878
0.0028212
0.00269844
0.00261848
0.00327834
0.00290563
0.00270858
0.00260863
0.00254524
0.00309016
0.00276378
0.00259365
0.0025091
0.00245956