/*--------------------------------*- C++ -*----------------------------------*\
| =========                 |                                                 |
| \\      /  F ield         | OpenFOAM: The Open Source CFD Toolbox           |
|  \\    /   O peration     | Version:  2.3.1                                 |
|   \\  /    A nd           | Web:      www.OpenFOAM.org                      |
|    \\/     M anipulation  |                                                 |
\*---------------------------------------------------------------------------*/
FoamFile
{
    version     2.0;
    format      ascii;
    class       volScalarField;
    location    "600";
    object      p;
}
// * * * * * * * * * * * * * * * * * * * * * * * * * * * * * * * * * * * * * //

dimensions      [0 2 -2 0 0 0 0];

internalField   nonuniform List<scalar> 
6852
(
77.9709
77.9595
77.9452
77.9276
77.9077
77.8859
77.9574
77.9461
77.932
77.9145
77.8948
77.8731
77.9709
77.9591
77.9442
77.925
77.9027
77.8758
78.0151
78.0047
77.9914
77.9732
77.9509
77.9192
78.0191
78.0086
77.9953
77.9776
77.9565
77.9271
78.0195
78.0065
77.9886
77.9668
77.9356
78.0127
77.9997
77.9816
77.9595
77.9273
77.9895
77.9773
77.96
77.9387
77.9067
77.9513
77.9406
77.925
77.9059
77.876
77.8982
77.8895
77.8762
77.8605
77.8345
77.835
77.8288
77.8188
77.8074
77.7868
77.7586
77.7546
77.7477
77.7399
77.7251
77.6906
77.6892
77.6858
77.682
77.6735
77.6377
77.6385
77.6381
77.6376
77.6341
77.5996
77.6022
77.604
77.6059
77.606
77.5731
77.5769
77.5803
77.5838
77.5862
77.555
77.5597
77.5641
77.5685
77.5724
77.5419
77.5473
77.5526
77.5578
77.5626
77.5319
77.5379
77.5439
77.5498
77.5554
77.5236
77.5303
77.537
77.5436
77.55
77.5166
77.524
77.5314
77.5387
77.5458
77.5103
77.5186
77.5268
77.5349
77.5426
77.5046
77.5139
77.5231
77.5319
77.5404
77.4994
77.5099
77.52
77.5297
77.539
77.4946
77.5064
77.5177
77.5283
77.5382
77.4904
77.5036
77.516
77.5276
77.5382
77.4867
77.5014
77.5151
77.5276
77.5388
77.4838
77.5
77.5149
77.5282
77.5401
77.4818
77.4995
77.5155
77.5296
77.5419
77.481
77.5
77.5169
77.5317
77.5444
77.4815
77.5016
77.5192
77.5344
77.5473
77.4836
77.5043
77.5224
77.5378
77.5509
77.4874
77.5082
77.5264
77.5419
77.555
77.4931
77.5136
77.5316
77.5469
77.5597
77.4994
77.5195
77.5372
77.5522
77.5651
77.5067
77.5262
77.5437
77.5587
77.5716
77.5169
77.5357
77.5526
77.5672
77.5796
77.5301
77.5474
77.5632
77.5771
77.5889
77.544
77.56
77.5749
77.5881
77.5992
77.5571
77.5722
77.5864
77.599
77.6095
77.5643
77.5796
77.5939
77.6066
77.6171
76.9384
76.927
76.9126
76.8951
76.8754
76.9188
76.9074
76.8931
76.8756
76.8561
76.8353
76.9247
76.9126
76.8972
76.8773
76.8543
76.827
76.9633
76.9521
76.9378
76.9182
76.8944
76.8612
76.9688
76.9577
76.9436
76.9248
76.9027
76.872
76.9777
76.967
76.9532
76.9343
76.9117
76.8792
76.9573
76.9438
76.9249
76.9024
76.8693
76.9343
76.9218
76.9038
76.8825
76.8498
76.8967
76.8858
76.8695
76.8506
76.82
76.8444
76.8354
76.8217
76.8061
76.7795
76.7833
76.777
76.7668
76.7554
76.7342
76.7055
76.7016
76.6946
76.6867
76.6717
76.6423
76.6412
76.6381
76.6346
76.6264
76.5957
76.5968
76.5967
76.5964
76.5934
76.5651
76.568
76.57
76.5718
76.5721
76.5456
76.5495
76.553
76.5562
76.5586
76.5324
76.5371
76.5415
76.5459
76.5496
76.5225
76.5279
76.5333
76.5384
76.5432
76.5145
76.5206
76.5266
76.5325
76.5381
76.5077
76.5144
76.521
76.5276
76.5339
76.5014
76.5089
76.5163
76.5235
76.5305
76.4956
76.5039
76.5121
76.5201
76.5279
76.4902
76.4995
76.5086
76.5175
76.526
76.4852
76.4956
76.5057
76.5155
76.5248
76.4805
76.4923
76.5036
76.5142
76.5243
76.4762
76.4895
76.5021
76.5138
76.5245
76.4725
76.4874
76.5013
76.514
76.5255
76.4694
76.486
76.5012
76.5149
76.527
76.4673
76.4856
76.502
76.5165
76.5291
76.4663
76.4861
76.5036
76.5188
76.5317
76.4669
76.4878
76.5062
76.5217
76.5349
76.4689
76.4907
76.5096
76.5254
76.5386
76.4729
76.4949
76.5139
76.5297
76.5428
76.4787
76.5004
76.5191
76.5348
76.5479
76.4853
76.5067
76.5254
76.541
76.5541
76.4945
76.5153
76.5334
76.5485
76.561
76.5063
76.5256
76.5423
76.5565
76.5684
76.5185
76.5359
76.5516
76.5652
76.5768
76.5305
76.5471
76.5623
76.5755
76.5866
76.543
76.5586
76.5731
76.5859
76.5965
76.552
76.5679
76.5826
76.5955
76.6062
75.8875
75.8763
75.8623
75.8459
75.8283
75.8671
75.8557
75.8416
75.8243
75.806
75.8689
75.8565
75.841
75.8208
75.7982
75.7711
75.9078
75.8961
75.8814
75.8606
75.8361
75.8008
75.915
75.9036
75.8894
75.87
75.8483
75.8166
75.9253
75.9143
75.9004
75.8807
75.8584
75.8243
75.9122
75.9015
75.8879
75.8684
75.8465
75.8117
75.8782
75.8658
75.8473
75.8268
75.7925
75.84
75.8292
75.8126
75.7949
75.7631
75.7857
75.7771
75.7633
75.7491
75.722
75.7256
75.72
75.7099
75.7002
75.6791
75.6371
75.6342
75.6279
75.6216
75.608
75.5791
75.5796
75.5783
75.5773
75.5716
75.541
75.544
75.546
75.5481
75.5476
75.5214
75.5259
75.5297
75.5332
75.5351
75.5113
75.5165
75.5214
75.5256
75.5284
75.5059
75.5114
75.5165
75.5209
75.5243
75.5023
75.5079
75.513
75.5175
75.5213
75.4988
75.5046
75.51
75.5148
75.519
75.4948
75.5011
75.5069
75.5122
75.5172
75.4903
75.4971
75.5036
75.5096
75.5153
75.4853
75.4929
75.5
75.5069
75.5136
75.4799
75.4885
75.4966
75.5044
75.5121
75.4741
75.4841
75.4935
75.5024
75.5111
75.4683
75.4799
75.4907
75.5009
75.5106
75.4627
75.476
75.4885
75.5
75.5108
75.4574
75.4728
75.487
75.4999
75.5116
75.4526
75.4703
75.4863
75.5004
75.5131
75.4488
75.4688
75.4865
75.5018
75.5151
75.4462
75.4685
75.4877
75.504
75.5178
75.4454
75.4697
75.4901
75.507
75.5212
75.4465
75.4723
75.4936
75.5109
75.5251
75.4509
75.4769
75.4984
75.5156
75.5297
75.4579
75.4833
75.5045
75.5213
75.5351
75.4666
75.4911
75.5115
75.5279
75.5414
75.4773
75.5004
75.5199
75.5357
75.5489
75.4899
75.5116
75.53
75.5452
75.5578
75.5052
75.5247
75.5417
75.556
75.5677
75.5205
75.5384
75.5541
75.5675
75.5786
75.5346
75.551
75.566
75.5788
75.5894
75.5467
75.5634
75.5786
75.5918
75.6027
74.8438
74.8337
74.8214
74.8072
74.7929
74.8237
74.8138
74.8018
74.788
74.7741
74.8142
74.8024
74.7879
74.77
74.7521
74.8531
74.8416
74.8276
74.8071
74.7843
74.7496
74.8611
74.8496
74.8358
74.8163
74.7957
74.7636
74.8734
74.8622
74.8485
74.8283
74.8069
74.771
74.8572
74.8462
74.8329
74.8128
74.7918
74.755
74.833
74.8228
74.8106
74.7915
74.7722
74.7357
74.793
74.7841
74.7738
74.7568
74.7406
74.7067
74.7278
74.7197
74.7057
74.6933
74.6649
74.6686
74.6637
74.6537
74.6456
74.6234
74.5597
74.5581
74.5534
74.5497
74.5389
74.5071
74.5096
74.511
74.5136
74.5128
74.4828
74.4873
74.4915
74.4964
74.5008
74.4775
74.4832
74.4891
74.4949
74.5004
74.4772
74.4836
74.4902
74.4965
74.5021
74.4799
74.4862
74.4928
74.4986
74.5037
74.4818
74.4881
74.4943
74.4997
74.5044
74.482
74.4882
74.4941
74.4994
74.5038
74.4803
74.4866
74.4925
74.4978
74.5024
74.4769
74.4836
74.4899
74.4956
74.5008
74.4722
74.4797
74.4866
74.493
74.499
74.4665
74.475
74.483
74.4903
74.4975
74.4602
74.47
74.4793
74.4879
74.4963
74.4534
74.465
74.4758
74.4859
74.4956
74.4465
74.4602
74.4729
74.4845
74.4955
74.4397
74.4559
74.4706
74.4839
74.4962
74.4332
74.4523
74.4692
74.4842
74.4976
74.4277
74.4498
74.469
74.4855
74.4999
74.4232
74.4486
74.47
74.4877
74.5028
74.4213
74.4494
74.4724
74.4911
74.5066
74.4216
74.452
74.4764
74.4956
74.5112
74.4273
74.4578
74.4822
74.5012
74.5166
74.4365
74.4659
74.4896
74.5079
74.5228
74.4481
74.4757
74.4982
74.5157
74.5299
74.462
74.4872
74.508
74.5244
74.5379
74.477
74.4998
74.5189
74.5343
74.5469
74.4939
74.5136
74.5308
74.5452
74.5571
74.5094
74.5276
74.5437
74.5573
74.5685
74.5241
74.541
74.5563
74.5694
74.5801
74.539
74.5564
74.5722
74.5857
74.5967
73.8258
73.8169
73.8063
73.7941
73.7816
73.8082
73.8001
73.7903
73.7792
73.7682
73.7912
73.7819
73.7709
73.7582
73.7459
73.8222
73.8124
73.8008
73.783
73.7653
73.8177
73.8068
73.7941
73.7751
73.7565
73.7237
73.8289
73.8179
73.805
73.7848
73.7648
73.7269
73.8083
73.7975
73.7848
73.7647
73.7451
73.7058
73.7828
73.7727
73.7612
73.742
73.7244
73.6851
73.7409
73.7322
73.7226
73.7057
73.6918
73.6553
73.6796
73.6725
73.6652
73.6513
73.6414
73.6107
73.6049
73.6016
73.5928
73.5886
73.5652
73.4791
73.4806
73.4809
73.4847
73.478
73.4265
73.4342
73.4455
73.4602
73.4679
73.4192
73.4289
73.4396
73.4518
73.4625
73.4413
73.4503
73.4587
73.4661
73.4726
73.4539
73.4617
73.469
73.475
73.4803
73.4614
73.4685
73.4749
73.4803
73.4852
73.466
73.4725
73.4785
73.4836
73.4881
73.4686
73.4747
73.4803
73.485
73.4892
73.4685
73.4745
73.48
73.4847
73.4891
73.466
73.4723
73.478
73.4831
73.4881
73.4617
73.4686
73.475
73.4808
73.4867
73.4559
73.4638
73.4712
73.4782
73.4853
73.4491
73.4585
73.4673
73.4757
73.4841
73.4415
73.4528
73.4634
73.4734
73.4833
73.4335
73.4472
73.4599
73.4717
73.483
73.4253
73.4419
73.457
73.4707
73.4834
73.417
73.4372
73.455
73.4706
73.4847
73.4095
73.4336
73.4541
73.4715
73.4867
73.4025
73.4311
73.4545
73.4736
73.4896
73.3986
73.431
73.4567
73.4769
73.4935
73.3964
73.4329
73.4606
73.4816
73.4983
73.4024
73.439
73.4669
73.4877
73.5041
73.4131
73.4483
73.4751
73.4951
73.5108
73.427
73.4596
73.4847
73.5034
73.5182
73.4437
73.4727
73.4953
73.5126
73.5264
73.4609
73.4863
73.5066
73.5225
73.5353
73.4802
73.5008
73.5184
73.5329
73.5448
73.4956
73.5142
73.5304
73.544
73.555
73.5093
73.5264
73.5416
73.5546
73.5653
73.5182
73.5357
73.5514
73.5649
73.5759
72.8245
72.8152
72.8041
72.7912
72.7777
72.8074
72.799
72.7888
72.7768
72.7644
72.7869
72.7782
72.768
72.7562
72.7434
72.8116
72.8024
72.7919
72.7763
72.7637
72.7868
72.7765
72.7648
72.7464
72.73
72.7939
72.7835
72.7715
72.7518
72.7339
72.6913
72.7689
72.7585
72.7468
72.7271
72.7103
72.6677
72.7413
72.7317
72.721
72.7025
72.6883
72.6476
72.6974
72.6891
72.6803
72.6641
72.6547
72.619
72.6258
72.6189
72.6122
72.5987
72.5937
72.566
72.4937
72.4907
72.4887
72.4809
72.4852
72.4751
72.2836
72.2842
72.2823
72.2852
72.2955
72.3902
72.3914
72.3922
72.3984
72.4075
72.3899
72.395
72.4019
72.4128
72.4257
72.4139
72.4217
72.4302
72.4391
72.449
72.4301
72.438
72.4461
72.4541
72.4626
72.444
72.4512
72.4578
72.4641
72.4707
72.4511
72.4574
72.4633
72.4689
72.4748
72.4544
72.4602
72.4657
72.471
72.4765
72.4544
72.4601
72.4656
72.471
72.4767
72.452
72.458
72.4639
72.4697
72.4759
72.4477
72.4544
72.461
72.4675
72.4745
72.4419
72.4498
72.4574
72.465
72.4729
72.435
72.4445
72.4535
72.4624
72.4715
72.4273
72.4388
72.4496
72.46
72.4704
72.419
72.433
72.446
72.4581
72.4699
72.4102
72.4273
72.4428
72.4569
72.4701
72.4011
72.4221
72.4404
72.4566
72.4711
72.3925
72.4178
72.4392
72.4573
72.473
72.3842
72.4147
72.4392
72.4592
72.4759
72.3792
72.414
72.4412
72.4625
72.4799
72.3755
72.4154
72.445
72.4672
72.4848
72.3817
72.4218
72.4516
72.4736
72.4907
72.3927
72.4314
72.46
72.4811
72.4975
72.4073
72.4431
72.4697
72.4894
72.5048
72.425
72.4564
72.4803
72.4983
72.5125
72.4422
72.4697
72.491
72.5075
72.5207
72.4613
72.4835
72.5019
72.5169
72.5292
72.4765
72.4961
72.5128
72.5267
72.5382
72.4907
72.5081
72.5236
72.5367
72.5475
72.4984
72.5159
72.5315
72.5448
72.5557
71.7956
71.7867
71.777
71.7628
71.756
71.7596
71.7499
71.7394
71.7233
71.7146
71.7671
71.7574
71.7467
71.7297
71.7204
71.7422
71.7325
71.722
71.7051
71.6968
71.6649
71.7191
71.71
71.7003
71.684
71.6771
71.6456
71.6924
71.6842
71.6757
71.6608
71.6558
71.6259
71.6461
71.6386
71.6312
71.6177
71.6144
71.5878
71.6359
71.6294
71.6232
71.6111
71.6099
71.5857
70.8013
70.7923
70.7823
70.7679
70.7607
70.7286
70.7192
70.7087
70.6931
70.6852
70.7458
70.7362
70.7256
70.7094
70.7013
70.7234
70.7139
70.7036
70.6873
70.6799
70.7018
70.6928
70.6831
70.6673
70.6607
70.62
70.6781
70.67
70.6612
70.6466
70.6412
70.6015
70.6218
70.6144
70.6067
70.5935
70.5897
70.5548
70.6513
70.6448
70.6382
70.6267
70.6247
70.5946
-7.94493
-7.94509
-7.94514
-7.94509
-7.94498
-7.94496
-7.94512
-7.94516
-7.9451
-7.94497
-7.94493
-7.94509
-7.94514
-7.9451
-7.94499
-7.94253
-7.94228
-7.94222
-7.94229
-7.94241
-7.94246
-7.94246
-7.94216
-7.94207
-7.9421
-7.94213
-7.94205
-7.94221
-7.94189
-7.94175
-7.94173
-7.94172
-7.9416
-7.94163
-7.94141
-7.94134
-7.94131
-7.94128
-7.9417
-7.94138
-7.94131
-7.94135
-7.94148
-7.94238
-7.94193
-7.94181
-7.94188
-7.94216
-7.94358
-7.94296
-7.94273
-7.94281
-7.94317
-7.94519
-7.94436
-7.94397
-7.94401
-7.9444
-7.94715
-7.94601
-7.94542
-7.94538
-7.94575
-7.94936
-7.94784
-7.94702
-7.94686
-7.94719
-7.95166
-7.94975
-7.9487
-7.94842
-7.94869
-7.95378
-7.95163
-7.95043
-7.95004
-7.95026
-7.95552
-7.95341
-7.95219
-7.95174
-7.95191
-7.95694
-7.95514
-7.95401
-7.95355
-7.95367
-7.95852
-7.95702
-7.95602
-7.95552
-7.95557
-7.9605
-7.95921
-7.95828
-7.95771
-7.95761
-7.96306
-7.96181
-7.96085
-7.96013
-7.95977
-7.96631
-7.96484
-7.9637
-7.96272
-7.96202
-7.97034
-7.9683
-7.9668
-7.96543
-7.96431
-7.97504
-7.97205
-7.97004
-7.96816
-7.96657
-7.9805
-7.97598
-7.97328
-7.97079
-7.96869
-7.98516
-7.97948
-7.97624
-7.9732
-7.97062
-7.98866
-7.98239
-7.97876
-7.97531
-7.97234
-7.99093
-7.9846
-7.98076
-7.97709
-7.97385
-7.99254
-7.98628
-7.98228
-7.97854
-7.97518
-7.99275
-7.98703
-7.98312
-7.97953
-7.97623
-7.99278
-7.98724
-7.98337
-7.97997
-7.9769
-7.99053
-7.98604
-7.98255
-7.97946
-7.97666
-7.98894
-7.98477
-7.98141
-7.97842
-7.97571
-7.98754
-7.98351
-7.98017
-7.97717
-7.97442
-8.9548
-8.95495
-8.95498
-8.95493
-8.95482
-8.95481
-8.95495
-8.95497
-8.95491
-8.95478
-8.95479
-8.95495
-8.95499
-8.95495
-8.95485
-8.95321
-8.95297
-8.95298
-8.95312
-8.95328
-8.95336
-8.95304
-8.95286
-8.95283
-8.95289
-8.95299
-8.95298
-8.95271
-8.95251
-8.95255
-8.95262
-8.95269
-8.95267
-8.95239
-8.9522
-8.95224
-8.95236
-8.95248
-8.9526
-8.95227
-8.9523
-8.95247
-8.95268
-8.95297
-8.95292
-8.9529
-8.95305
-8.95331
-8.95373
-8.9541
-8.95397
-8.95403
-8.95429
-8.95478
-8.95572
-8.9554
-8.95531
-8.95551
-8.95603
-8.95774
-8.9571
-8.95679
-8.9569
-8.9574
-8.96011
-8.95899
-8.95844
-8.95842
-8.95886
-8.96257
-8.96099
-8.96019
-8.96003
-8.9604
-8.96484
-8.96298
-8.96201
-8.96173
-8.96203
-8.9667
-8.96486
-8.96386
-8.96352
-8.96374
-8.96818
-8.96667
-8.96576
-8.96541
-8.96556
-8.9698
-8.96861
-8.96784
-8.96747
-8.96752
-8.97177
-8.97083
-8.97014
-8.9697
-8.9696
-8.97425
-8.97341
-8.9727
-8.97212
-8.97179
-8.97734
-8.97637
-8.97552
-8.97469
-8.97404
-8.98107
-8.97969
-8.97854
-8.97735
-8.9763
-8.98535
-8.98325
-8.98166
-8.98
-8.97848
-8.99005
-8.98691
-8.98476
-8.98255
-8.98053
-8.99427
-8.99026
-8.98761
-8.98488
-8.9824
-8.99772
-8.99312
-8.99007
-8.98693
-8.98408
-9.00014
-8.99533
-8.99205
-8.9887
-8.98563
-9.00214
-8.99711
-8.99364
-8.99022
-8.98708
-9.00269
-8.99799
-8.99461
-8.99134
-8.98832
-9.00305
-8.99832
-8.99493
-8.99188
-8.98908
-9.00106
-8.9971
-8.99405
-8.9913
-8.98881
-8.99885
-8.99527
-8.99235
-8.98973
-8.98733
-8.9963
-8.99293
-8.99005
-8.98739
-8.98492
-9.96481
-9.96494
-9.96496
-9.9649
-9.9648
-9.96483
-9.96495
-9.96496
-9.96489
-9.96477
-9.96479
-9.96493
-9.96497
-9.96493
-9.96485
-9.96392
-9.96369
-9.96378
-9.96398
-9.96415
-9.9642
-9.9636
-9.96348
-9.96355
-9.96369
-9.96389
-9.96391
-9.96309
-9.96297
-9.96317
-9.96337
-9.96356
-9.96368
-9.96261
-9.96253
-9.96282
-9.96316
-9.96349
-9.96382
-9.96275
-9.96259
-9.96292
-9.96338
-9.96383
-9.96435
-9.96322
-9.96355
-9.96403
-9.96455
-9.96519
-9.96437
-9.96462
-9.96504
-9.96556
-9.96627
-9.96593
-9.96604
-9.96632
-9.96679
-9.96751
-9.96786
-9.96774
-9.9678
-9.96818
-9.96886
-9.97021
-9.96964
-9.96946
-9.96971
-9.97032
-9.97278
-9.97168
-9.97126
-9.97137
-9.9719
-9.97522
-9.97379
-9.97317
-9.97315
-9.97359
-9.97726
-9.97583
-9.97515
-9.97505
-9.97541
-9.97887
-9.97778
-9.9772
-9.97708
-9.97735
-9.98062
-9.97987
-9.97942
-9.97928
-9.97943
-9.98267
-9.9822
-9.98186
-9.98165
-9.98163
-9.98517
-9.98485
-9.98453
-9.98419
-9.98394
-9.9882
-9.98784
-9.98742
-9.98687
-9.9863
-9.99175
-9.99113
-9.99049
-9.98961
-9.98866
-9.99581
-9.99464
-9.99364
-9.99235
-9.99095
-10.0002
-9.99822
-9.99677
-9.99499
-9.99312
-10.0044
-10.0016
-9.99972
-9.99745
-9.99515
-10.0081
-10.0047
-10.0024
-9.9997
-9.99705
-10.0109
-10.0072
-10.0046
-10.0017
-9.99888
-10.0134
-10.0093
-10.0065
-10.0036
-10.0007
-10.0143
-10.0106
-10.0078
-10.0051
-10.0024
-10.015
-10.0112
-10.0085
-10.006
-10.0036
-10.0133
-10.0101
-10.0078
-10.0057
-10.0038
-10.0107
-10.008
-10.0058
-10.0039
-10.0022
-10.0076
-10.005
-10.0029
-10.001
-9.9991
-10.9751
-10.9751
-10.9751
-10.9751
-10.9749
-10.9751
-10.9752
-10.9752
-10.9751
-10.975
-10.975
-10.9751
-10.9752
-10.9751
-10.975
-10.9747
-10.9745
-10.9747
-10.9749
-10.9751
-10.9752
-10.9742
-10.9741
-10.9743
-10.9746
-10.9749
-10.9749
-10.9735
-10.9734
-10.9738
-10.9741
-10.9745
-10.9748
-10.9728
-10.9728
-10.9733
-10.9739
-10.9745
-10.975
-10.9729
-10.9728
-10.9734
-10.9741
-10.9749
-10.9757
-10.9737
-10.9734
-10.9741
-10.9748
-10.9756
-10.9765
-10.9745
-10.9751
-10.9758
-10.9766
-10.9776
-10.976
-10.9764
-10.977
-10.9778
-10.9788
-10.9778
-10.978
-10.9784
-10.9791
-10.9801
-10.98
-10.9798
-10.98
-10.9806
-10.9815
-10.9824
-10.9818
-10.9818
-10.9823
-10.9831
-10.9849
-10.984
-10.9838
-10.9841
-10.9848
-10.9871
-10.9862
-10.9859
-10.9862
-10.9868
-10.9889
-10.9883
-10.9882
-10.9884
-10.9888
-10.9909
-10.9906
-10.9906
-10.9908
-10.9911
-10.9931
-10.9931
-10.9933
-10.9934
-10.9935
-10.9956
-10.9959
-10.9961
-10.9962
-10.9961
-10.9986
-10.999
-10.9992
-10.9991
-10.9987
-11.002
-11.0023
-11.0024
-11.002
-11.0013
-11.0058
-11.0059
-11.0057
-11.005
-11.0038
-11.0098
-11.0094
-11.009
-11.0079
-11.0063
-11.014
-11.013
-11.0121
-11.0106
-11.0087
-11.0179
-11.0162
-11.0151
-11.0133
-11.0111
-11.0209
-11.0191
-11.0177
-11.0157
-11.0134
-11.024
-11.0217
-11.02
-11.018
-11.0157
-11.0255
-11.0234
-11.0218
-11.02
-11.0179
-11.0267
-11.0245
-11.023
-11.0214
-11.0197
-11.0256
-11.0239
-11.0228
-11.0217
-11.0204
-11.0233
-11.0219
-11.021
-11.0201
-11.0191
-11.0202
-11.0189
-11.0179
-11.017
-11.0159
-11.9855
-11.9855
-11.9855
-11.9854
-11.9852
-11.9856
-11.9856
-11.9856
-11.9854
-11.9852
-11.9855
-11.9855
-11.9855
-11.9854
-11.9853
-11.9855
-11.9854
-11.9857
-11.986
-11.9862
-11.9848
-11.9849
-11.9852
-11.9856
-11.9859
-11.9861
-11.9839
-11.984
-11.9845
-11.985
-11.9856
-11.9861
-11.9831
-11.9833
-11.984
-11.9848
-11.9856
-11.9864
-11.9832
-11.9834
-11.9842
-11.9851
-11.986
-11.987
-11.9839
-11.984
-11.9848
-11.9857
-11.9868
-11.9879
-11.985
-11.985
-11.9858
-11.9866
-11.9877
-11.9889
-11.9864
-11.9869
-11.9878
-11.9888
-11.99
-11.988
-11.9883
-11.9891
-11.9901
-11.9912
-11.9899
-11.99
-11.9906
-11.9915
-11.9927
-11.9921
-11.9919
-11.9924
-11.9932
-11.9943
-11.9946
-11.9941
-11.9944
-11.9952
-11.9961
-11.997
-11.9965
-11.9968
-11.9974
-11.9982
-11.9991
-11.999
-11.9993
-11.9999
-12.0006
-12.0014
-12.0016
-12.0021
-12.0026
-12.0031
-12.0038
-12.0044
-12.0051
-12.0056
-12.0059
-12.0066
-12.0075
-12.0083
-12.0088
-12.0088
-12.0097
-12.0109
-12.0117
-12.012
-12.0119
-12.0131
-12.0144
-12.0152
-12.0154
-12.0149
-12.0168
-12.0181
-12.0188
-12.0188
-12.018
-12.0206
-12.0217
-12.0224
-12.0221
-12.0211
-12.0249
-12.0256
-12.026
-12.0254
-12.0241
-12.0292
-12.0293
-12.0294
-12.0286
-12.0271
-12.0328
-12.0325
-12.0324
-12.0316
-12.03
-12.0363
-12.0356
-12.0353
-12.0343
-12.0329
-12.0383
-12.0377
-12.0375
-12.0368
-12.0356
-12.04
-12.0393
-12.0391
-12.0386
-12.0378
-12.0395
-12.0393
-12.0394
-12.0394
-12.039
-12.0377
-12.0377
-12.0381
-12.0382
-12.0381
-12.0349
-12.035
-12.0352
-12.0354
-12.0351
-12.9961
-12.9961
-12.9959
-12.9957
-12.9955
-12.9962
-12.9962
-12.996
-12.9958
-12.9956
-12.9961
-12.996
-12.9959
-12.9958
-12.9956
-12.9964
-12.9965
-12.9969
-12.9973
-12.9975
-12.9956
-12.9959
-12.9963
-12.9968
-12.9972
-12.9944
-12.9949
-12.9955
-12.9962
-12.9969
-12.9976
-12.9937
-12.9942
-12.995
-12.9959
-12.9969
-12.9979
-12.9938
-12.9943
-12.9952
-12.9962
-12.9974
-12.9986
-12.9945
-12.995
-12.9958
-12.9969
-12.9981
-12.9994
-12.9955
-12.996
-12.9968
-12.9978
-12.999
-13.0003
-12.9967
-12.9972
-12.9979
-12.9988
-13.0001
-13.0014
-12.9986
-12.9991
-13.0001
-13.0013
-13.0027
-13.0003
-13.0007
-13.0016
-13.0028
-13.0042
-13.0024
-13.0026
-13.0035
-13.0046
-13.0059
-13.0049
-13.005
-13.0057
-13.0068
-13.008
-13.0076
-13.0076
-13.0084
-13.0094
-13.0104
-13.0101
-13.0105
-13.0113
-13.0123
-13.0132
-13.0128
-13.0136
-13.0146
-13.0155
-13.0162
-13.0156
-13.0169
-13.0181
-13.019
-13.0195
-13.0187
-13.0204
-13.0218
-13.0228
-13.023
-13.022
-13.0241
-13.0257
-13.0266
-13.0267
-13.0254
-13.0279
-13.0296
-13.0305
-13.0304
-13.0291
-13.0317
-13.0336
-13.0344
-13.0342
-13.0328
-13.0356
-13.0375
-13.0383
-13.0379
-13.0372
-13.0397
-13.0414
-13.042
-13.0416
-13.0418
-13.0437
-13.0452
-13.0457
-13.0451
-13.0457
-13.0473
-13.0486
-13.049
-13.0485
-13.0497
-13.0507
-13.0518
-13.0521
-13.0517
-13.0522
-13.0532
-13.0543
-13.0548
-13.0546
-13.0542
-13.0551
-13.0563
-13.057
-13.0571
-13.0543
-13.0556
-13.057
-13.0582
-13.0587
-13.0531
-13.0545
-13.0561
-13.0574
-13.0581
-13.0508
-13.0523
-13.0537
-13.0548
-13.0554
-14.0068
-14.0067
-14.0065
-14.0062
-14.0059
-14.007
-14.0068
-14.0066
-14.0063
-14.006
-14.0068
-14.0067
-14.0065
-14.0062
-14.006
-14.0076
-14.0079
-14.0085
-14.0089
-14.0093
-14.0066
-14.0071
-14.0077
-14.0083
-14.0089
-14.0053
-14.0061
-14.0069
-14.0077
-14.0086
-14.0046
-14.0055
-14.0065
-14.0075
-14.0087
-14.0097
-14.0049
-14.0057
-14.0068
-14.0079
-14.0092
-14.0104
-14.0057
-14.0064
-14.0074
-14.0086
-14.0099
-14.0112
-14.0069
-14.0074
-14.0084
-14.0095
-14.0109
-14.0122
-14.008
-14.0085
-14.0094
-14.0106
-14.012
-14.0134
-14.0093
-14.0098
-14.0107
-14.0119
-14.0133
-14.0148
-14.0114
-14.0124
-14.0136
-14.015
-14.0165
-14.0135
-14.0144
-14.0157
-14.0171
-14.0185
-14.0163
-14.0171
-14.0183
-14.0197
-14.021
-14.0194
-14.0202
-14.0214
-14.0228
-14.024
-14.0224
-14.0236
-14.025
-14.0264
-14.0273
-14.0256
-14.0273
-14.0289
-14.0303
-14.0311
-14.029
-14.0312
-14.0331
-14.0345
-14.0351
-14.0325
-14.0352
-14.0374
-14.0388
-14.0393
-14.036
-14.0393
-14.0418
-14.0433
-14.0437
-14.0396
-14.0433
-14.0461
-14.0478
-14.0481
-14.0434
-14.0474
-14.0504
-14.0521
-14.0525
-14.0473
-14.0515
-14.0546
-14.0564
-14.0568
-14.0517
-14.0557
-14.0588
-14.0605
-14.061
-14.0565
-14.06
-14.0628
-14.0645
-14.0649
-14.0608
-14.0638
-14.0665
-14.068
-14.0685
-14.065
-14.0674
-14.0697
-14.0712
-14.0717
-14.0676
-14.0699
-14.0722
-14.0738
-14.0745
-14.0697
-14.0718
-14.0742
-14.0761
-14.0772
-14.0701
-14.0726
-14.0753
-14.0775
-14.0789
-14.0694
-14.0721
-14.0748
-14.0769
-14.0782
-14.0677
-14.0703
-14.0727
-14.0746
-14.0757
-15.0177
-15.0175
-15.0172
-15.0168
-15.0163
-15.0178
-15.0176
-15.0173
-15.0168
-15.0164
-15.0177
-15.0175
-15.0171
-15.0167
-15.0163
-15.0193
-15.0199
-15.0206
-15.021
-15.0215
-15.0181
-15.0189
-15.0197
-15.0205
-15.0211
-15.0168
-15.0178
-15.0189
-15.0199
-15.0209
-15.0162
-15.0173
-15.0186
-15.0198
-15.021
-15.0167
-15.0177
-15.019
-15.0204
-15.0217
-15.0228
-15.0178
-15.0185
-15.0198
-15.0212
-15.0225
-15.0237
-15.019
-15.0196
-15.0208
-15.0223
-15.0236
-15.0249
-15.0203
-15.0207
-15.022
-15.0235
-15.0249
-15.0263
-15.0215
-15.0221
-15.0235
-15.0251
-15.0266
-15.0281
-15.0232
-15.0238
-15.0253
-15.0271
-15.0287
-15.0302
-15.0262
-15.0278
-15.0297
-15.0313
-15.0328
-15.0293
-15.0309
-15.0328
-15.0345
-15.0359
-15.0329
-15.0347
-15.0366
-15.0383
-15.0395
-15.0365
-15.0387
-15.0409
-15.0426
-15.0436
-15.0405
-15.0431
-15.0455
-15.0472
-15.0481
-15.0444
-15.0476
-15.0503
-15.0521
-15.0529
-15.0484
-15.0521
-15.0552
-15.0572
-15.0579
-15.0524
-15.0566
-15.06
-15.0622
-15.0629
-15.0564
-15.061
-15.0648
-15.0671
-15.068
-15.0603
-15.0653
-15.0693
-15.0719
-15.0729
-15.0644
-15.0696
-15.0737
-15.0764
-15.0775
-15.0687
-15.0739
-15.0779
-15.0806
-15.0819
-15.0735
-15.0781
-15.0819
-15.0846
-15.0858
-15.0777
-15.0818
-15.0854
-15.088
-15.0892
-15.0818
-15.0851
-15.0884
-15.0908
-15.0921
-15.0842
-15.0874
-15.0906
-15.0932
-15.0947
-15.086
-15.0891
-15.0925
-15.0953
-15.0973
-15.0866
-15.0901
-15.0938
-15.0969
-15.0991
-15.0863
-15.0899
-15.0933
-15.096
-15.0976
-15.085
-15.0884
-15.0915
-15.0939
-15.0953
-16.0288
-16.0284
-16.0279
-16.0274
-16.0268
-16.0289
-16.0285
-16.028
-16.0275
-16.0268
-16.0287
-16.0284
-16.0279
-16.0273
-16.0267
-16.0318
-16.0325
-16.0333
-16.0339
-16.0346
-16.0303
-16.0313
-16.0324
-16.0334
-16.0341
-16.0291
-16.0303
-16.0317
-16.033
-16.034
-16.0287
-16.0299
-16.0315
-16.0331
-16.0342
-16.0295
-16.0305
-16.0321
-16.0338
-16.0351
-16.0308
-16.0316
-16.0331
-16.0348
-16.0362
-16.0373
-16.0322
-16.0329
-16.0343
-16.0362
-16.0377
-16.0389
-16.0336
-16.0343
-16.0358
-16.0378
-16.0395
-16.0407
-16.0351
-16.036
-16.0377
-16.0398
-16.0417
-16.043
-16.0371
-16.0381
-16.04
-16.0424
-16.0443
-16.0457
-16.0398
-16.041
-16.043
-16.0456
-16.0476
-16.049
-16.0446
-16.0468
-16.0495
-16.0516
-16.0529
-16.0489
-16.0512
-16.054
-16.0561
-16.0573
-16.0532
-16.0561
-16.059
-16.0611
-16.0621
-16.0578
-16.0611
-16.0643
-16.0665
-16.0674
-16.0624
-16.0663
-16.0698
-16.072
-16.0729
-16.0669
-16.0714
-16.0752
-16.0776
-16.0785
-16.0713
-16.0762
-16.0804
-16.0831
-16.0841
-16.0755
-16.0809
-16.0853
-16.0883
-16.0896
-16.0795
-16.0852
-16.09
-16.0932
-16.0947
-16.0837
-16.0895
-16.0943
-16.0977
-16.0994
-16.0878
-16.0936
-16.0983
-16.1018
-16.1036
-16.0923
-16.0975
-16.1019
-16.1053
-16.1072
-16.0961
-16.1007
-16.1049
-16.1082
-16.1101
-16.0995
-16.1034
-16.1073
-16.1104
-16.1124
-16.1015
-16.1052
-16.1091
-16.1123
-16.1147
-16.1029
-16.1066
-16.1107
-16.1143
-16.1168
-16.1034
-16.1077
-16.112
-16.1157
-16.1184
-16.1034
-16.1077
-16.1115
-16.1145
-16.1167
-16.1024
-16.1063
-16.1098
-16.1126
-16.1145
-17.04
-17.0395
-17.0389
-17.0382
-17.0374
-17.0401
-17.0396
-17.039
-17.0382
-17.0373
-17.0399
-17.0395
-17.0388
-17.0381
-17.0372
-17.0452
-17.0461
-17.0471
-17.0478
-17.0485
-17.0435
-17.0447
-17.046
-17.0473
-17.048
-17.0424
-17.0438
-17.0455
-17.0471
-17.0482
-17.0422
-17.0436
-17.0455
-17.0473
-17.0486
-17.0434
-17.0446
-17.0464
-17.0484
-17.0498
-17.045
-17.046
-17.0478
-17.0498
-17.0513
-17.0468
-17.0478
-17.0495
-17.0516
-17.0533
-17.0486
-17.0497
-17.0515
-17.0537
-17.0557
-17.0569
-17.0506
-17.0518
-17.0539
-17.0564
-17.0585
-17.0599
-17.053
-17.0546
-17.0569
-17.0596
-17.062
-17.0634
-17.0563
-17.058
-17.0606
-17.0636
-17.066
-17.0674
-17.0604
-17.0623
-17.0651
-17.0682
-17.0707
-17.072
-17.0673
-17.0703
-17.0736
-17.076
-17.0772
-17.0723
-17.0758
-17.0792
-17.0817
-17.0827
-17.0775
-17.0815
-17.0852
-17.0877
-17.0886
-17.0826
-17.0871
-17.0911
-17.0937
-17.0946
-17.0875
-17.0926
-17.0968
-17.0997
-17.1006
-17.092
-17.0976
-17.1023
-17.1054
-17.1066
-17.0964
-17.1024
-17.1073
-17.1107
-17.1121
-17.1003
-17.1065
-17.1118
-17.1154
-17.1172
-17.1045
-17.1106
-17.1158
-17.1196
-17.1217
-17.1081
-17.1141
-17.1192
-17.1231
-17.1255
-17.1121
-17.1174
-17.1222
-17.126
-17.1285
-17.1151
-17.1199
-17.1244
-17.1282
-17.1307
-17.1178
-17.1219
-17.1261
-17.1297
-17.1325
-17.1191
-17.123
-17.1273
-17.1312
-17.1342
-17.1199
-17.1241
-17.1286
-17.1328
-17.136
-17.1204
-17.1251
-17.1298
-17.1339
-17.1371
-17.1205
-17.1251
-17.1292
-17.1328
-17.1355
-17.1195
-17.1237
-17.1275
-17.1307
-17.133
-18.0515
-18.0509
-18.05
-18.0491
-18.0481
-18.0516
-18.0509
-18.0501
-18.0491
-18.048
-18.0514
-18.0508
-18.05
-18.049
-18.0479
-18.0598
-18.061
-18.0621
-18.0629
-18.0637
-18.0579
-18.0594
-18.061
-18.0624
-18.0631
-18.0571
-18.0587
-18.0606
-18.0624
-18.0636
-18.0571
-18.0588
-18.0609
-18.0629
-18.0643
-18.0587
-18.0602
-18.0623
-18.0644
-18.066
-18.0607
-18.0621
-18.0641
-18.0663
-18.068
-18.063
-18.0643
-18.0664
-18.0687
-18.0707
-18.0653
-18.0668
-18.0691
-18.0716
-18.0738
-18.0679
-18.0697
-18.0722
-18.075
-18.0774
-18.0788
-18.0709
-18.0731
-18.0759
-18.0791
-18.0816
-18.0831
-18.0748
-18.0773
-18.0804
-18.0838
-18.0865
-18.0879
-18.0795
-18.0822
-18.0856
-18.0892
-18.0919
-18.0932
-18.0849
-18.0878
-18.0915
-18.0951
-18.0978
-18.0989
-18.0933
-18.0975
-18.1013
-18.104
-18.105
-18.099
-18.1036
-18.1076
-18.1103
-18.1112
-18.1043
-18.1095
-18.1138
-18.1166
-18.1175
-18.1094
-18.115
-18.1196
-18.1227
-18.1236
-18.114
-18.1201
-18.125
-18.1283
-18.1295
-18.1183
-18.1246
-18.1298
-18.1334
-18.1349
-18.1219
-18.1284
-18.1338
-18.1377
-18.1397
-18.1258
-18.1319
-18.1373
-18.1413
-18.1437
-18.1289
-18.1347
-18.1399
-18.1441
-18.1468
-18.132
-18.1372
-18.1421
-18.1462
-18.1491
-18.1342
-18.1389
-18.1435
-18.1475
-18.1507
-18.136
-18.1401
-18.1444
-18.1485
-18.1519
-18.1366
-18.1406
-18.1452
-18.1496
-18.1533
-18.1369
-18.1413
-18.1462
-18.1508
-18.1547
-18.1372
-18.1421
-18.1471
-18.1516
-18.1553
-18.1372
-18.142
-18.1466
-18.1506
-18.1537
-18.1361
-18.1405
-18.1447
-18.1483
-18.151
-19.0633
-19.0625
-19.0615
-19.0604
-19.0591
-19.0634
-19.0625
-19.0615
-19.0603
-19.059
-19.0632
-19.0624
-19.0614
-19.0602
-19.0589
-19.076
-19.0773
-19.0784
-19.0794
-19.0802
-19.0739
-19.0756
-19.0775
-19.0789
-19.0796
-19.0732
-19.0751
-19.0773
-19.0792
-19.0805
-19.0735
-19.0755
-19.0779
-19.0801
-19.0815
-19.0755
-19.0774
-19.0798
-19.0821
-19.0838
-19.0781
-19.0798
-19.0822
-19.0846
-19.0865
-19.0809
-19.0827
-19.0852
-19.0878
-19.0898
-19.0838
-19.0859
-19.0886
-19.0914
-19.0937
-19.087
-19.0894
-19.0925
-19.0956
-19.0982
-19.0906
-19.0935
-19.0969
-19.1004
-19.1031
-19.1046
-19.0951
-19.0983
-19.1021
-19.1058
-19.1087
-19.11
-19.1003
-19.1038
-19.1079
-19.1118
-19.1146
-19.1158
-19.1062
-19.1099
-19.1141
-19.1181
-19.1209
-19.1219
-19.1112
-19.1157
-19.1204
-19.1246
-19.1273
-19.1282
-19.1216
-19.1267
-19.131
-19.1337
-19.1345
-19.127
-19.1326
-19.1371
-19.1399
-19.1407
-19.132
-19.138
-19.1427
-19.1457
-19.1466
-19.1364
-19.1427
-19.1478
-19.151
-19.1521
-19.1404
-19.1467
-19.152
-19.1556
-19.1571
-19.1435
-19.1499
-19.1554
-19.1593
-19.1613
-19.1469
-19.1528
-19.158
-19.1621
-19.1646
-19.1492
-19.1548
-19.1598
-19.164
-19.1669
-19.1516
-19.1564
-19.1611
-19.1652
-19.1684
-19.1528
-19.1573
-19.1617
-19.1659
-19.1694
-19.1538
-19.1578
-19.1621
-19.1665
-19.1704
-19.1538
-19.1578
-19.1625
-19.1673
-19.1716
-19.1536
-19.1582
-19.1633
-19.1683
-19.1727
-19.1536
-19.1587
-19.1639
-19.1689
-19.1732
-19.1534
-19.1584
-19.1634
-19.168
-19.1718
-19.1521
-19.1568
-19.1614
-19.1656
-19.1691
-20.0755
-20.0745
-20.0733
-20.072
-20.0705
-20.0756
-20.0746
-20.0733
-20.0719
-20.0703
-20.0754
-20.0745
-20.0733
-20.0718
-20.0703
-20.0938
-20.0952
-20.0964
-20.0974
-20.0982
-20.0915
-20.0935
-20.0956
-20.097
-20.0975
-20.0911
-20.0932
-20.0957
-20.0977
-20.0989
-20.0915
-20.0939
-20.0967
-20.0989
-20.1003
-20.0941
-20.0963