/*--------------------------------*- C++ -*----------------------------------*\
| =========                 |                                                 |
| \\      /  F ield         | OpenFOAM: The Open Source CFD Toolbox           |
|  \\    /   O peration     | Version:  2.3.1                                 |
|   \\  /    A nd           | Web:      www.OpenFOAM.org                      |
|    \\/     M anipulation  |                                                 |
\*---------------------------------------------------------------------------*/
FoamFile
{
    version     2.0;
    format      ascii;
    class       volScalarField;
    location    "600";
    object      p_rgh;
}
// * * * * * * * * * * * * * * * * * * * * * * * * * * * * * * * * * * * * * //

dimensions      [0 2 -2 0 0 0 0];

internalField   nonuniform List<scalar> 
6852
(
78.4773
78.466
78.4516
78.434
78.4141
78.3924
78.4639
78.4526
78.4384
78.421
78.4013
78.3796
78.4773
78.4655
78.4506
78.4315
78.4092
78.3823
78.5215
78.5111
78.4979
78.4797
78.4573
78.4256
78.5256
78.5151
78.5018
78.484
78.4629
78.4336
78.5259
78.5129
78.4951
78.4733
78.4421
78.5192
78.5062
78.4881
78.466
78.4337
78.4959
78.4838
78.4664
78.4452
78.4131
78.4578
78.4471
78.4314
78.4124
78.3825
78.4046
78.3959
78.3827
78.367
78.3409
78.3414
78.3353
78.3253
78.3139
78.2932
78.265
78.2611
78.2542
78.2464
78.2316
78.1971
78.1957
78.1922
78.1884
78.18
78.1442
78.145
78.1446
78.144
78.1406
78.106
78.1086
78.1105
78.1123
78.1124
78.0796
78.0834
78.0868
78.0902
78.0926
78.0615
78.0661
78.0706
78.075
78.0789
78.0484
78.0538
78.059
78.0643
78.0691
78.0383
78.0444
78.0503
78.0562
78.0619
78.0301
78.0368
78.0435
78.0501
78.0565
78.023
78.0305
78.0379
78.0452
78.0523
78.0168
78.0251
78.0333
78.0413
78.0491
78.0111
78.0204
78.0295
78.0384
78.0469
78.0059
78.0163
78.0265
78.0362
78.0454
78.0011
78.0129
78.0241
78.0348
78.0447
77.9969
78.01
78.0225
78.034
78.0447
77.9932
78.0079
78.0215
78.034
78.0453
77.9903
78.0065
78.0213
78.0347
78.0465
77.9883
78.006
78.0219
78.0361
78.0484
77.9874
78.0064
78.0234
78.0381
78.0508
77.988
78.008
78.0257
78.0409
78.0538
77.9901
78.0108
78.0289
78.0443
78.0573
77.9938
78.0147
78.0329
78.0484
78.0614
77.9996
78.0201
78.0381
78.0533
78.0662
78.0058
78.026
78.0436
78.0587
78.0716
78.0131
78.0327
78.0501
78.0652
78.0781
78.0234
78.0421
78.059
78.0737
78.0861
78.0365
78.0538
78.0697
78.0835
78.0953
78.0504
78.0665
78.0814
78.0945
78.1056
78.0635
78.0787
78.0929
78.1055
78.116
78.0707
78.086
78.1004
78.113
78.1235
78.4578
78.4464
78.432
78.4145
78.3948
78.4382
78.4268
78.4125
78.395
78.3755
78.3547
78.4441
78.432
78.4166
78.3967
78.3737
78.3464
78.4827
78.4715
78.4572
78.4376
78.4138
78.3806
78.4882
78.4771
78.463
78.4442
78.4221
78.3914
78.4971
78.4864
78.4726
78.4537
78.4311
78.3986
78.4767
78.4632
78.4443
78.4218
78.3887
78.4537
78.4412
78.4232
78.4019
78.3692
78.4161
78.4052
78.3889
78.37
78.3394
78.3638
78.3548
78.3411
78.3255
78.2989
78.3027
78.2964
78.2862
78.2748
78.2536
78.2249
78.221
78.214
78.2061
78.1911
78.1617
78.1606
78.1575
78.154
78.1458
78.1151
78.1162
78.1161
78.1158
78.1128
78.0845
78.0874
78.0894
78.0912
78.0915
78.065
78.0689
78.0724
78.0756
78.078
78.0518
78.0565
78.0609
78.0653
78.069
78.0419
78.0473
78.0526
78.0578
78.0626
78.0339
78.04
78.046
78.0519
78.0575
78.0271
78.0338
78.0404
78.047
78.0533
78.0208
78.0283
78.0357
78.0429
78.0499
78.015
78.0233
78.0315
78.0395
78.0473
78.0096
78.0189
78.028
78.0369
78.0454
78.0046
78.015
78.0251
78.0349
78.0442
77.9999
78.0117
78.023
78.0336
78.0437
77.9956
78.0089
78.0215
78.0332
78.0439
77.9919
78.0068
78.0207
78.0334
78.0449
77.9888
78.0054
78.0206
78.0343
78.0464
77.9867
78.005
78.0214
78.0359
78.0485
77.9857
78.0055
78.023
78.0382
78.0511
77.9862
78.0072
78.0256
78.0411
78.0543
77.9883
78.0101
78.029
78.0448
78.058
77.9922
78.0143
78.0333
78.0491
78.0622
77.9981
78.0198
78.0385
78.0542
78.0673
78.0047
78.0261
78.0448
78.0604
78.0734
78.0139
78.0347
78.0528
78.0679
78.0804
78.0257
78.045
78.0617
78.0759
78.0878
78.0379
78.0553
78.071
78.0846
78.0962
78.0499
78.0665
78.0817
78.0949
78.106
78.0624
78.078
78.0925
78.1053
78.1159
78.0714
78.0873
78.102
78.1149
78.1256
78.4198
78.4086
78.3947
78.3782
78.3607
78.3994
78.3881
78.3739
78.3567
78.3383
78.4012
78.3889
78.3733
78.3532
78.3305
78.3034
78.4401
78.4285
78.4138
78.3929
78.3685
78.3332
78.4473
78.4359
78.4217
78.4024
78.3806
78.3489
78.4576
78.4466
78.4328
78.413
78.3908
78.3566
78.4446
78.4338
78.4203
78.4007
78.3788
78.344
78.4106
78.3981
78.3796
78.3591
78.3248
78.3723
78.3616
78.345
78.3272
78.2954
78.3181
78.3095
78.2956
78.2815
78.2544
78.258
78.2523
78.2423
78.2325
78.2114
78.1695
78.1665
78.1602
78.154
78.1404
78.1114
78.1119
78.1107
78.1096
78.104
78.0733
78.0763
78.0783
78.0804
78.0799
78.0537
78.0582
78.0621
78.0656
78.0674
78.0436
78.0489
78.0537
78.0579
78.0608
78.0382
78.0437
78.0488
78.0532
78.0567
78.0346
78.0402
78.0453
78.0498
78.0536
78.0311
78.0369
78.0424
78.0471
78.0514
78.0271
78.0334
78.0393
78.0446
78.0495
78.0227
78.0294
78.0359
78.0419
78.0477
78.0177
78.0252
78.0324
78.0392
78.0459
78.0122
78.0208
78.029
78.0367
78.0444
78.0065
78.0164
78.0258
78.0347
78.0434
78.0007
78.0122
78.023
78.0332
78.043
77.995
78.0084
78.0208
78.0324
78.0431
77.9897
78.0051
78.0193
78.0322
78.044
77.9849
78.0026
78.0186
78.0328
78.0454
77.9812
78.0012
78.0188
78.0342
78.0475
77.9785
78.0008
78.0201
78.0363
78.0502
77.9778
78.002
78.0225
78.0394
78.0535
77.9788
78.0046
78.026
78.0432
78.0574
77.9832
78.0092
78.0308
78.048
78.0621
77.9902
78.0157
78.0368
78.0537
78.0675
77.9989
78.0234
78.0439
78.0603
78.0738
78.0097
78.0328
78.0522
78.0681
78.0812
78.0222
78.0439
78.0624
78.0776
78.0901
78.0375
78.057
78.0741
78.0883
78.1
78.0529
78.0707
78.0864
78.0998
78.1109
78.0669
78.0834
78.0983
78.1112
78.1218
78.079
78.0957
78.111
78.1242
78.135
78.3891
78.3789
78.3666
78.3525
78.3382
78.369
78.3591
78.3471
78.3332
78.3193
78.3594
78.3476
78.3332
78.3152
78.2973
78.3984
78.3869
78.3729
78.3523
78.3295
78.2949
78.4063
78.3949
78.3811
78.3615
78.341
78.3089
78.4187
78.4074
78.3938
78.3736
78.3522
78.3163
78.4025
78.3915
78.3781
78.358
78.337
78.3002
78.3782
78.368
78.3558
78.3368
78.3175
78.2809
78.3383
78.3294
78.319
78.3021
78.2859
78.252
78.2731
78.265
78.2509
78.2386
78.2101
78.2138
78.209
78.199
78.1909
78.1686
78.1049
78.1034
78.0987
78.095
78.0842
78.0523
78.0548
78.0563
78.0589
78.0581
78.028
78.0326
78.0368
78.0417
78.0461
78.0227
78.0284
78.0343
78.0402
78.0456
78.0225
78.0288
78.0355
78.0418
78.0474
78.0251
78.0315
78.038
78.0439
78.049
78.027
78.0333
78.0395
78.045
78.0496
78.0272
78.0334
78.0394
78.0446
78.0491
78.0255
78.0318
78.0378
78.0431
78.0477
78.0222
78.0289
78.0352
78.0408
78.046
78.0175
78.0249
78.0319
78.0383
78.0443
78.0118
78.0203
78.0282
78.0356
78.0427
78.0054
78.0153
78.0245
78.0331
78.0415
77.9987
78.0103
78.0211
78.0311
78.0408
77.9917
78.0055
78.0181
78.0298
78.0408
77.9849
78.0012
78.0159
78.0292
78.0415
77.9785
77.9976
78.0145
78.0295
78.0429
77.9729
77.9951
78.0142
78.0307
78.0451
77.9684
77.9939
78.0152
78.033
78.0481
77.9666
77.9947
78.0177
78.0364
78.0519
77.9668
77.9973
78.0217
78.0408
78.0565
77.9725
78.0031
78.0275
78.0465
78.0618
77.9818
78.0112
78.0349
78.0532
78.068
77.9933
78.021
78.0434
78.0609
78.0751
78.0072
78.0325
78.0532
78.0697
78.0831
78.0223
78.0451
78.0641
78.0795
78.0922
78.0392
78.0589
78.0761
78.0904
78.1023
78.0546
78.0728
78.0889
78.1025
78.1138
78.0694
78.0863
78.1015
78.1146
78.1254
78.0842
78.1017
78.1174
78.131
78.142
78.384
78.3751
78.3644
78.3523
78.3398
78.3664
78.3583
78.3485
78.3374
78.3264
78.3493
78.3401
78.3291
78.3164
78.3041
78.3804
78.3706
78.359
78.3411
78.3235
78.3759
78.365
78.3523
78.3333
78.3147
78.2819
78.387
78.3761
78.3632
78.343
78.3229
78.2851
78.3665
78.3557
78.343
78.3229
78.3032
78.264
78.3409
78.3309
78.3194
78.3002
78.2826
78.2433
78.2991
78.2904
78.2808
78.2639
78.25
78.2135
78.2378
78.2307
78.2234
78.2094
78.1996
78.1689
78.1631
78.1598
78.151
78.1468
78.1234
78.0373
78.0388
78.0391
78.0429
78.0362
77.9847
77.9924
78.0036
78.0184
78.0261
77.9774
77.9871
77.9978
78.01
78.0207
77.9995
78.0085
78.0169
78.0243
78.0308
78.012
78.0199
78.0272
78.0332
78.0385
78.0196
78.0266
78.0331
78.0385
78.0434
78.0242
78.0307
78.0367
78.0418
78.0463
78.0268
78.0329
78.0385
78.0432
78.0474
78.0267
78.0327
78.0382
78.0429
78.0473
78.0242
78.0305
78.0362
78.0413
78.0463
78.0199
78.0268
78.0331
78.039
78.0449
78.0141
78.022
78.0294
78.0364
78.0435
78.0073
78.0166
78.0254
78.0338
78.0423
77.9997
78.011
78.0216
78.0316
78.0415
77.9917
78.0054
78.0181
78.0299
78.0412
77.9835
78.0001
78.0152
78.0289
78.0416
77.9752
77.9954
78.0132
78.0288
78.0428
77.9677
77.9918
78.0123
78.0297
78.0449
77.9607
77.9893
78.0127
78.0318
78.0478
77.9568
77.9892
78.0149
78.0351
78.0517
77.9546
77.9911
78.0188
78.0398
78.0565
77.9606
77.9972
78.0251
78.0459
78.0623
77.9713
78.0065
78.0333
78.0533
78.069
77.9852
78.0178
78.0428
78.0616
78.0764
78.0019
78.0309
78.0535
78.0708
78.0846
78.0191
78.0445
78.0647
78.0807
78.0935
78.0384
78.059
78.0766
78.0911
78.103
78.0538
78.0724
78.0886
78.1021
78.1132
78.0675
78.0845
78.0998
78.1128
78.1234
78.0764
78.0939
78.1096
78.1231
78.1341
78.3956
78.3864
78.3752
78.3623
78.3488
78.3785
78.3701
78.3599
78.3479
78.3355
78.3581
78.3494
78.3392
78.3273
78.3145
78.3827
78.3736
78.363
78.3474
78.3348
78.3579
78.3476
78.3359
78.3176
78.3011
78.365
78.3546
78.3426
78.323
78.3051
78.2624
78.34
78.3296
78.3179
78.2982
78.2814
78.2388
78.3124
78.3028
78.2921
78.2736
78.2594
78.2187
78.2686
78.2602
78.2514
78.2352
78.2258
78.1902
78.1969
78.1901
78.1834
78.1698
78.1648
78.1372
78.0648
78.0619
78.0598
78.0521
78.0563
78.0462
77.8548
77.8554
77.8534
77.8563
77.8667
77.9613
77.9625
77.9633
77.9695
77.9786
77.9611
77.9661
77.973
77.9839
77.9968
77.985
77.9928
78.0013
78.0102
78.0201
78.0013
78.0091
78.0173
78.0252
78.0337
78.0152
78.0223
78.029
78.0352
78.0418
78.0222
78.0285
78.0344
78.0401
78.0459
78.0255
78.0313
78.0368
78.0421
78.0477
78.0255
78.0312
78.0367
78.0421
78.0478
78.0231
78.0291
78.035
78.0408
78.047
78.0188
78.0256
78.0321
78.0386
78.0456
78.013
78.0209
78.0285
78.0361
78.044
78.0062
78.0156
78.0247
78.0335
78.0426
77.9985
78.0099
78.0207
78.0312
78.0415
77.9901
78.0041
78.0171
78.0293
78.041
77.9813
77.9985
78.0139
78.028
78.0412
77.9723
77.9932
78.0115
78.0277
78.0422
77.9637
77.989
78.0103
78.0284
78.0441
77.9553
77.9858
78.0104
78.0303
78.047
77.9503
77.9851
78.0123
78.0336
78.051
77.9466
77.9865
78.0162
78.0384
78.0559
77.9528
77.9929
78.0227
78.0447
78.0619
77.9639
78.0025
78.0311
78.0522
78.0686
77.9784
78.0142
78.0408
78.0605
78.0759
77.9961
78.0275
78.0514
78.0694
78.0837
78.0133
78.0408
78.0621
78.0787
78.0918
78.0325
78.0546
78.073
78.0881
78.1003
78.0477
78.0672
78.0839
78.0979
78.1093
78.0618
78.0792
78.0947
78.1079
78.1187
78.0696
78.087
78.1026
78.116
78.1268
78.3797
78.3708
78.3611
78.3469
78.34
78.3436
78.334
78.3234
78.3074
78.2986
78.3512
78.3414
78.3307
78.3138
78.3044
78.3262
78.3165
78.3061
78.2891
78.2809
78.249
78.3032
78.2941
78.2844
78.2681
78.2611
78.2296
78.2765
78.2682
78.2598
78.2449
78.2399
78.21
78.2302
78.2227
78.2153
78.2018
78.1985
78.1718
78.22
78.2134
78.2073
78.1951
78.1939
78.1698
78.3983
78.3893
78.3793
78.3649
78.3577
78.3256
78.3162
78.3057
78.2901
78.2822
78.3427
78.3332
78.3226
78.3063
78.2983
78.3204
78.3109
78.3005
78.2843
78.2769
78.2988
78.2898
78.2801
78.2643
78.2577
78.217
78.2751
78.267
78.2582
78.2436
78.2382
78.1985
78.2188
78.2114
78.2037
78.1905
78.1867
78.1518
78.2483
78.2418
78.2351
78.2237
78.2217
78.1916
0.638364
0.638188
0.638132
0.638181
0.638348
0.638348
0.638173
0.638121
0.638172
0.638325
0.638375
0.638192
0.638131
0.63818
0.638362
0.647344
0.647609
0.647588
0.647299
0.646822
0.646403
0.647468
0.647797
0.647826
0.64759
0.647238
0.647034
0.64773
0.648164
0.648315
0.64822
0.648023
0.647889
0.648485
0.648819
0.648845
0.648717
0.648532
0.648434
0.648941
0.649055
0.648925
0.648625
0.647755
0.648468
0.648712
0.648612
0.648217
0.646549
0.647509
0.647927
0.647888
0.647451
0.644916
0.646178
0.646827
0.64689
0.646468
0.64294
0.64459
0.645518
0.645721
0.645357
0.64072
0.642847
0.644078
0.64445
0.644168
0.638439
0.641047
0.64257
0.643116
0.642922
0.636409
0.639323
0.641048
0.641733
0.641619
0.634824
0.637747
0.639526
0.640291
0.640239
0.633625
0.636277
0.637962
0.638752
0.638754
0.632328
0.634681
0.636235
0.637048
0.637124
0.630676
0.632799
0.634255
0.63512
0.635343
0.628476
0.63052
0.631968
0.632954
0.633411
0.625596
0.627794
0.629369
0.630578
0.631356
0.621931
0.624621
0.626494
0.628053
0.62922
0.617584
0.621131
0.623454
0.62548
0.627096
0.612472
0.617443
0.620376
0.622965
0.625071
0.608128
0.614138
0.617554
0.620658
0.623227
0.604907
0.611401
0.615149
0.618645
0.62161
0.602874
0.609353
0.613276
0.616995
0.620246
0.601482
0.607848
0.611935
0.615736
0.619153
0.601498
0.607317
0.611328
0.615018
0.618403
0.601736
0.607382
0.611358
0.614859
0.618021
0.604287
0.608868
0.612431
0.615591
0.618434
0.606131
0.610335
0.613722
0.616712
0.619402
0.607662
0.611688
0.615011
0.617966
0.620636
0.638267
0.638106
0.63806
0.638103
0.638222
0.638276
0.638121
0.638082
0.638135
0.638261
0.638287
0.638114
0.638057
0.638092
0.638209
0.647298
0.647566
0.647504
0.647149
0.64659
0.646138
0.647498
0.647761
0.647773
0.647563
0.647222
0.646951
0.647809
0.648188
0.648243
0.648112
0.647874
0.647667
0.6481
0.648526
0.648701
0.648639
0.648429
0.648133
0.648451
0.648762
0.648759
0.648551
0.648145
0.647753
0.648262
0.648392
0.648223
0.647748
0.646495
0.64727
0.647614
0.647535
0.647043
0.64476
0.6459
0.646537
0.646599
0.646142
0.642591
0.644266
0.645252
0.645498
0.645116
0.640064
0.642468
0.64383
0.644288
0.644002
0.637531
0.640618
0.642336
0.642998
0.642814
0.635349
0.638862
0.640831
0.641644
0.641551
0.633756
0.637303
0.639338
0.64022
0.640199
0.632707
0.635916
0.637824
0.638694
0.638732
0.631639
0.634441
0.636158
0.637001
0.637105
0.630285
0.632714
0.634254
0.635097
0.635315
0.628437
0.630618
0.632056
0.632967
0.633375
0.625962
0.628096
0.629556
0.630638
0.631323
0.622798
0.625158
0.626794
0.628169
0.629218
0.619029
0.621913
0.623873
0.625657
0.627144
0.614783
0.618514
0.620928
0.623214
0.625187
0.610944
0.615376
0.618204
0.62098
0.623427
0.607802
0.612688
0.615866
0.619052
0.621909
0.605643
0.610644
0.61405
0.617493
0.620649
0.603889
0.609092
0.612708
0.616291
0.619609
0.603606
0.608494
0.612071
0.615559
0.618823
0.603541
0.608463
0.612062
0.615341
0.618356
0.605767
0.609888
0.613115
0.616019
0.618643
0.60808
0.61175
0.614748
0.617433
0.619855
0.610529
0.613905
0.61678
0.6194
0.621805
0.637932
0.637806
0.637786
0.637846
0.63796
0.637912
0.637797
0.637788
0.637859
0.637983
0.637967
0.637822
0.637784
0.637824
0.637921
0.647278
0.647564
0.647448
0.647022
0.646472
0.646122
0.647624
0.647852
0.647818
0.647572
0.647158
0.646883
0.648135
0.64844
0.64841
0.648216
0.647905
0.64759
0.648546
0.648903
0.648963
0.648767
0.648421
0.647967
0.648234
0.64881
0.649014
0.648869
0.648516
0.647944
0.648053
0.648509
0.648514
0.648214
0.647589
0.646698
0.647515
0.647778
0.647596
0.646985
0.644831
0.646148
0.64677
0.646762
0.646214
0.642518
0.644504
0.645565
0.645772
0.645319
0.639769
0.642693
0.644218
0.644662
0.644316
0.636981
0.640836
0.642782
0.643447
0.643206
0.634668
0.639077
0.641313
0.642133
0.641979
0.633116
0.637548
0.63984
0.640713
0.64062
0.632297
0.636243
0.638336
0.639161
0.639111
0.631517
0.63486
0.636664
0.637415
0.637421
0.630493
0.633235
0.634742
0.635441
0.635548
0.628985
0.631239
0.632519
0.633232
0.633515
0.626859
0.62882
0.629995
0.630821
0.631366
0.624091
0.626001
0.627218
0.628276
0.629173
0.620708
0.622865
0.624284
0.625694
0.627023
0.616936
0.619584
0.621334
0.623192
0.625006
0.613125
0.616407
0.618553
0.620896
0.623205
0.609803
0.613596
0.616126
0.618909
0.621664
0.607437
0.611435
0.614213
0.61729
0.62037
0.605306
0.609641
0.612722
0.615994
0.619229
0.604762
0.608813
0.611892
0.615055
0.618159
0.604377
0.608504
0.611543
0.614408
0.61715
0.606223
0.609603
0.612179
0.614519
0.6167
0.608573
0.611441
0.613681
0.615672
0.617503
0.611174
0.613774
0.615881
0.617786
0.619568
0.63728
0.637213
0.637243
0.637344
0.637487
0.637162
0.637113
0.637164
0.637283
0.637439
0.637326
0.637233
0.637237
0.637308
0.637413
0.647253
0.647521
0.647322
0.646834
0.646332
0.64599
0.647754
0.647952
0.647853
0.647518
0.647038
0.646724
0.648448
0.648795
0.648676
0.648404
0.647956
0.647479
0.648907
0.649414
0.64939
0.649093
0.648569
0.647927
0.648462
0.649336
0.649505
0.649288
0.648755
0.647995
0.647145
0.64854
0.649056
0.649036
0.64858
0.647785
0.647122
0.648138
0.64843
0.648122
0.647355
0.645188
0.646881
0.647584
0.647474
0.646774
0.642782
0.645367
0.646555
0.646673
0.646058
0.639948
0.643694
0.645381
0.645731
0.645207
0.637153
0.64196
0.644089
0.64464
0.644201
0.634906
0.640301
0.642709
0.643387
0.643021
0.633527
0.638853
0.64126
0.641958
0.641649
0.633
0.637619
0.639724
0.640335
0.640072
0.63252
0.636272
0.637964
0.638461
0.638267
0.631794
0.634656
0.63592
0.636324
0.636244
0.630569
0.632654
0.633558
0.633933
0.634036
0.628736
0.630233
0.630899
0.631337
0.631703
0.626319
0.627443
0.628009
0.628618
0.629325
0.6233
0.624347
0.624978
0.625873
0.626995
0.619956
0.621114
0.621949
0.623222
0.624806
0.616223
0.617894
0.619075
0.620778
0.62283
0.61286
0.615024
0.616518
0.618615
0.621085
0.610331
0.612658
0.614426
0.616827
0.619546
0.607792
0.610585
0.612707
0.615277
0.618068
0.606781
0.609409
0.611514
0.613941
0.616506
0.605848
0.608554
0.61057
0.612653
0.61479
0.606797
0.608843
0.610341
0.611803
0.613303
0.608472
0.610009
0.611099
0.612109
0.613151
0.610684
0.611963
0.612889
0.613764
0.614701
0.636344
0.636361
0.636471
0.636643
0.636847
0.636152
0.636187
0.636317
0.636511
0.636734
0.636411
0.636395
0.636469
0.636602
0.636758
0.647141
0.647355
0.647046
0.646514
0.64604
0.647787
0.647952
0.647797
0.647356
0.646812
0.646382
0.648606
0.649021
0.648871
0.648502
0.647912
0.647262
0.649056
0.649774
0.649734
0.649365
0.648684
0.647885
0.648463
0.6497
0.649933
0.649701
0.649024
0.648119
0.646935
0.648882
0.649589
0.649617
0.649047
0.648126
0.644502
0.647458
0.648829
0.649216
0.648814
0.647922
0.645526
0.647781
0.648609
0.648407
0.647565
0.64313
0.646509
0.647827
0.647829
0.647041
0.64043
0.645075
0.64688
0.647069
0.646334
0.637838
0.643553
0.645756
0.646088
0.645408
0.635815
0.64205
0.64445
0.644852
0.644232
0.634674
0.640667
0.64296
0.64334
0.642782
0.634378
0.639408
0.64128
0.641543
0.641054
0.634066
0.637945
0.639295
0.639427
0.639036
0.633453
0.636164
0.636983
0.637005
0.636757
0.632282
0.633975
0.634343
0.634314
0.634262
0.630492
0.631381
0.631422
0.631419
0.631623
0.628158
0.628445
0.628301
0.628408
0.628921
0.625288
0.625251
0.625062
0.625374
0.62624
0.622251
0.622018
0.621845
0.622419
0.623659
0.618537
0.618637
0.618721
0.61962
0.621226
0.614826
0.615406
0.615865
0.617104
0.618966
0.611875
0.61273
0.613428
0.614872
0.616867
0.608874
0.61028
0.611285
0.612834
0.614794
0.607366
0.608634
0.609581
0.610945
0.612627
0.605889
0.607176
0.607976
0.608984
0.610229
0.605914
0.60655
0.606794
0.607164
0.607798
0.606637
0.606756
0.606569
0.606474
0.606641
0.607996
0.60788
0.607541
0.60732
0.607385
0.635162
0.635291
0.63551
0.635788
0.636092
0.634904
0.635045
0.635284
0.635584
0.635911
0.635253
0.635345
0.635524
0.635756
0.636008
0.646852
0.64697
0.646539
0.645957
0.645409
0.647669
0.647764
0.647534
0.64698
0.646352
0.648613
0.648984
0.648874
0.648375
0.647655
0.646872
0.649029
0.649809
0.649912
0.649438
0.648643
0.647756
0.648323
0.649753
0.650226
0.649947
0.64918
0.648209
0.646643
0.648972
0.650021
0.650071
0.649437
0.64846
0.644073
0.647637
0.649435
0.649901
0.649436
0.648473
0.640517
0.645854
0.648609
0.64954
0.649245
0.648298
0.643655
0.647582
0.648984
0.648836
0.647901
0.641204
0.646384
0.648213
0.648175
0.647255
0.638869
0.645055
0.647173
0.647198
0.646308
0.63706
0.643648
0.64582
0.645853
0.645019
0.63605
0.642207
0.644135
0.64411
0.64336
0.635775
0.640737
0.642135
0.641983
0.641336
0.635362
0.638942
0.639745
0.639464
0.638952
0.634593
0.636776
0.636999
0.636605
0.636256
0.633272
0.634213
0.63394
0.633471
0.633311
0.631413
0.631333
0.630645
0.630147
0.630195
0.629124
0.628242
0.627193
0.626724
0.626985
0.626346
0.624949
0.623695
0.623276
0.623759
0.623348
0.621574
0.620256
0.619922
0.620594
0.619588
0.618022
0.616882
0.616732
0.617539
0.615626
0.614506
0.613645
0.613711
0.614651
0.612277
0.611452
0.61078
0.610974
0.611938
0.608809
0.608593
0.608196
0.608458
0.609344
0.606795
0.60651
0.606051
0.60613
0.60676
0.604843
0.60455
0.603924
0.603652
0.603865
0.604016
0.603109
0.601957
0.601109
0.600804
0.603679
0.602292
0.600756
0.599502
0.598768
0.604057
0.602509
0.600907
0.59962
0.598858
0.633755
0.634024
0.634384
0.634803
0.635245
0.633437
0.633714
0.634091
0.634532
0.635002
0.633873
0.634102
0.634422
0.634797
0.635191
0.646252
0.646237
0.645659
0.644984
0.644294
0.647268
0.647283
0.646902
0.646212
0.6455
0.648379
0.648635
0.648453
0.647822
0.647002
0.648754
0.649538
0.649636
0.64908
0.648228
0.647345
0.647881
0.649509
0.650062
0.649757
0.648957
0.648014
0.645992
0.648812
0.650017
0.650085
0.649424
0.648474
0.64325
0.647624
0.649638
0.650102
0.649584
0.648618
0.639566
0.646034
0.649028
0.6499
0.6495
0.64851
0.634796
0.644059
0.648186
0.649443
0.649114
0.648096
0.641846
0.647115
0.648686
0.64838
0.647348
0.639733
0.645805
0.64754
0.647214
0.646201
0.638048
0.644266
0.645929
0.645553
0.644603
0.636972
0.642503
0.643829
0.643371
0.642532
0.636446
0.640566
0.641295
0.640714
0.640008
0.635644
0.638234
0.638311
0.637608
0.637058
0.634446
0.635549
0.634976
0.634151
0.633756
0.63272
0.632539
0.631374
0.630436
0.630182
0.630539
0.629303
0.62764
0.626576
0.626427
0.627994
0.625948
0.623884
0.622662
0.622572
0.625098
0.622467
0.620117
0.618801
0.618712
0.621982
0.618869
0.616393
0.615043
0.614929
0.618111
0.61507
0.612681
0.611407
0.611311
0.613828
0.611261
0.609119
0.607987
0.607902
0.610112
0.607919
0.605965
0.604925
0.604807
0.606395
0.604861
0.603185
0.60222
0.602026
0.604156
0.602603
0.600874
0.599735
0.59929
0.602047
0.600428
0.598502
0.597001
0.596157
0.600682
0.59843
0.595991
0.593967
0.592737
0.599475
0.596762
0.594039
0.591826
0.590498
0.599043
0.596265
0.5936
0.591454
0.590096
0.632123
0.632561
0.633096
0.633691
0.63431
0.631745
0.632189
0.632737
0.633356
0.634009
0.632272
0.632667
0.633165
0.633725
0.63431
0.645142
0.644971
0.644214
0.643395
0.642551
0.646353
0.646303
0.64569
0.644819
0.644046
0.647513
0.647807
0.647405
0.64659
0.645712
0.647797
0.648804
0.648719
0.648005
0.647147
0.646724
0.648819
0.649254
0.648778
0.648002
0.647164
0.644705
0.648198
0.649345
0.649198
0.64857
0.647717
0.641867
0.647081
0.649076
0.649267
0.648732
0.647826
0.638137
0.645584
0.648558
0.649056
0.64856
0.647591
0.633415
0.643718
0.64775
0.648491
0.647971
0.646945
0.628147
0.641603
0.646615
0.647503
0.646925
0.645864
0.639505
0.6451
0.645991
0.645329
0.644273
0.637712
0.64319
0.643883
0.643119
0.642131
0.636286
0.640863
0.641161
0.640293
0.639428
0.635197
0.638238
0.637942
0.636939
0.636217
0.633703
0.635182
0.634269
0.633124
0.632553
0.63181
0.631832
0.630306
0.628989
0.628536
0.629463
0.628272
0.626185
0.624655
0.624259
0.626807
0.624612
0.62202
0.620265
0.619842
0.623889
0.620887
0.617904
0.615931
0.615378
0.620811
0.617174
0.613877
0.611713
0.610998
0.617477
0.613392
0.609939
0.607679
0.606823
0.613678
0.609575
0.60615
0.603882
0.602932
0.609395
0.605772
0.602575
0.600389
0.599432
0.605714
0.602501
0.599499
0.597385
0.596409
0.602152
0.599615
0.596899
0.59487
0.593828
0.600032
0.597499
0.594717
0.592466
0.591113
0.598038
0.595357
0.592301
0.589646
0.587882
0.596357
0.592982
0.589406
0.586379
0.584364
0.594479
0.590718
0.587153
0.584386
0.582822
0.593447
0.589742
0.586375
0.583741
0.581997
0.630253
0.630891
0.631633
0.632441
0.633267
0.629812
0.630452
0.631208
0.632044
0.632922
0.630435
0.631027
0.631736
0.632524
0.633347
0.643288
0.642925
0.641954
0.640946
0.639957
0.644695
0.644528
0.643623
0.642513
0.641701
0.645829
0.646156
0.645436
0.644349
0.643453
0.646029
0.647209
0.646832
0.645853
0.645026
0.644772
0.647172
0.647408
0.646656
0.645863
0.642635
0.646529
0.647566
0.647091
0.646332
0.645611
0.639686
0.645383
0.647289
0.647049
0.646253
0.645441
0.635845
0.643832
0.646669
0.646609
0.64574
0.64484
0.631055
0.641861
0.64564
0.645688
0.644712
0.643731
0.625818
0.639578
0.644169
0.644227
0.643126
0.642094
0.621407
0.637199
0.642173
0.642112
0.640887
0.639856
0.634949
0.63962
0.639296
0.637969
0.637008
0.632864
0.63652
0.635806
0.634395
0.633559
0.630993
0.633079
0.631816
0.630289
0.629591
0.628697
0.62924
0.627427
0.625767
0.625192
0.626087
0.625204
0.622842
0.621008
0.620491
0.62315
0.621079
0.618219
0.616162
0.615609
0.620094
0.617038
0.613718
0.611381
0.610668
0.616906
0.613099
0.609382
0.60677
0.60581
0.613783
0.60936
0.605292
0.602455
0.601224
0.610328
0.605622
0.601443
0.598466
0.597001
0.606827
0.602077
0.59791
0.594846
0.593237
0.602868
0.598639
0.594727
0.591727
0.59005
0.599622
0.595824
0.592132
0.589217
0.58752
0.596594
0.593454
0.59005
0.587238
0.585397
0.594893
0.591739
0.588215
0.585095
0.582932
0.593209
0.589764
0.58581
0.582299
0.579954
0.591384
0.587129
0.582748
0.579127
0.576718
0.589051
0.584561
0.580519
0.577443
0.575503
0.587725
0.583485
0.579718
0.576648
0.574587
0.628117
0.628983
0.629966
0.631017
0.632088
0.627608
0.628474
0.629472
0.63057
0.631725
0.628335
0.629151
0.630104
0.631156
0.632259
0.640408
0.639818
0.638598
0.637364
0.63622
0.64201
0.641645
0.640395
0.638995
0.638127
0.643049
0.643298
0.642236
0.640813
0.639827
0.643147
0.64433
0.643639
0.642313
0.641399
0.641695
0.644141
0.644095
0.642981
0.642028
0.639373
0.643338
0.644068
0.643219
0.642214
0.636196
0.64198
0.643512
0.642854
0.641717
0.632121
0.64017
0.642526
0.641974
0.640686
0.639752
0.62711
0.637864
0.641023
0.640481
0.639029
0.637992
0.621695
0.635159
0.638966
0.638342
0.636736
0.635646
0.617075
0.632245
0.63628
0.635477
0.633742
0.632662
0.61449
0.629354
0.632973
0.631875
0.630054
0.629057
0.626487
0.629076
0.627607
0.625729
0.624873
0.623822
0.62488
0.622906
0.620947
0.620235
0.620795
0.620384
0.617915
0.615852
0.615252
0.617602
0.615846
0.612877
0.610644
0.610061
0.614248
0.61139
0.607949
0.605489
0.604813
0.610976
0.607208
0.60331
0.600559
0.59965
0.607691
0.603281
0.598994
0.595963
0.59475
0.604729
0.59979
0.595189
0.591878
0.590283
0.601369
0.596378
0.591761
0.588278
0.586357
0.598407
0.593424
0.588859
0.585265
0.58313
0.595077
0.59067
0.586397
0.582856
0.58057
0.592587
0.588596
0.584552
0.581104
0.578698
0.590357
0.586944
0.583157
0.579706
0.577072
0.589254
0.585749
0.581689
0.577869
0.575023
0.58797
0.583964
0.579359
0.575336
0.572406
0.586127
0.581228
0.576402
0.572419
0.569714
0.583529
0.578622
0.574293
0.570861
0.568689
0.582268
0.57771
0.573588
0.570247
0.56809
0.62567
0.626794
0.628049
0.629383
0.630742
0.625084
0.626203
0.627479
0.62888
0.630356
0.625923
0.626991
0.628218
0.62957
0.630985
0.636202
0.635347
0.633845
0.63236
0.631043
0.637967
0.637292
0.635613
0.633961
0.633031
0.638846
0.638859
0.637365
0.635639
0.634514
0.638851
0.639783
0.638639
0.637007
0.63592
0.637126
0.63933
0.638826
0.637388
0.636174
0.634529
0.638252
0.638475
0.637236
0.635885
0.631021
0.636539
0.637468
0.636317
0.634793
0.626595
0.634307
0.635937
0.634787
0.633072
0.621224
0.631497
0.633796
0.632573
0.630667
0.629523
0.615461
0.628212
0.63103
0.629669
0.627587
0.626401
0.610425
0.624632
0.627586
0.626023
0.623831
0.622684
0.607321
0.621035
0.623538
0.621702
0.619457
0.61842
0.605941
0.617426
0.61895
0.616803
0.61455
0.613682
0.614091
0.614187
0.611607
0.609319
0.608613
0.610531
0.609276
0.60627
0.603925
0.603335
0.606987
0.604504
0.601052
0.598575
0.597994
0.60346
0.599994
0.596119
0.593432
0.592721
0.600222
0.595957
0.59166
0.588684
0.587718
0.597102
0.592342
0.587716
0.584453
0.583126
0.594549
0.589377
0.584499
0.58092
0.579134
0.591568
0.586576
0.58179
0.578005
0.575836
0.589335
0.584464
0.579801
0.575921
0.573407
0.586854
0.582603
0.57826
0.574414
0.571574
0.585301
0.581423
0.5773
0.573498
0.570442
0.583986
0.580544
0.576574
0.572591
0.569256
0.583547
0.579888
0.575415
0.571088
0.567598
0.582692
0.578252
0.573293
0.568886
0.565518
0.580912
0.575615
0.570553
0.566367
0.563499
0.578295
0.573152
0.568578
0.564987
0.562809
0.577301
0.572503
0.568139
0.564696
0.562677
0.622853
0.624263
0.625824
0.627481
0.62917
0.622178
0.623577
0.625161
0.626899
0.628735
0.623135
0.624479
0.626009
0.627692
0.629464
0.630406
0.629259
0.627453
0.625658
0.624135
0.63229
0.631191
0.629001
0.627103
0.626087
0.632962
0.632572
0.630565
0.628527
0.627212
0.632849
0.633303
0.631596
0.629621
0.628297
0.630771
0.632488
0.631376
0.629512
0.628047
0.627825
0.631029
0.630568
0.628818
0.627209
0.623917
0.628862
0.629007
0.627255
0.625416
0.619073
0.626121
0.626855
0.625025
0.622951
0.613264
0.622735
0.624031
0.622068
0.619778
0.607059
0.618827
0.620562
0.618442
0.615988
0.614669
0.601518
0.614592
0.616438
0.614138
0.611588
0.610354
0.597856
0.61037
0.6118
0.609274
0.606695
0.605637
0.595839
0.606189
0.60675
0.604001
0.601465
0.600616
0.595414
0.602436
0.601709
0.598628
0.59611
0.595445
0.598621
0.596701
0.593291
0.590783
0.590257
0.595024
0.592024
0.588251
0.585675
0.585171
0.591625
0.587785
0.583662
0.580928
0.580293
0.588702
0.584194
0.579698
0.576713
0.575816
0.586029
0.581191
0.576463
0.573164
0.571883
0.584125
0.579002
0.5741
0.570454
0.56863
0.581789
0.577061
0.572366
0.568519
0.566211
0.580404
0.575933
0.571426
0.567478
0.564697
0.578903
0.575078
0.570916
0.567018
0.563862
0.578334
0.574798
0.570812
0.56684
0.563345
0.577929
0.574632
0.570588
0.566274
0.56246
0.578123
0.574386
0.56964
0.564976
0.561018
0.577697
0.572929
0.567715
0.562999
0.559242
0.576031
0.570508
0.565256
0.560866
0.55774
0.573618
0.568269
0.563478
0.559715
0.557417
0.57304
0.567962
0.563369
0.559802
0.557826
0.619576
0.621303
0.623207
0.625228
0.627296
0.618794
0.620498
0.62242
0.624528
0.626768
0.619871
0.621513
0.623372
0.625421
0.627623
0.622783
0.621356
0.619192
0.616993
0.615275
0.624722
0.623049
0.620332
0.6182
0.617185
0.625179
0.624224
0.621631
0.619235
0.617779
0.62489
0.624691