/*--------------------------------*- C++ -*----------------------------------*\
| =========                 |                                                 |
| \\      /  F ield         | OpenFOAM: The Open Source CFD Toolbox           |
|  \\    /   O peration     | Version:  2.3.1                                 |
|   \\  /    A nd           | Web:      www.OpenFOAM.org                      |
|    \\/     M anipulation  |                                                 |
\*---------------------------------------------------------------------------*/
FoamFile
{
    version     2.0;
    format      ascii;
    class       surfaceScalarField;
    location    "600";
    object      phi;
}
// * * * * * * * * * * * * * * * * * * * * * * * * * * * * * * * * * * * * * //

dimensions      [0 3 -1 0 0 0 0];

internalField   nonuniform List<scalar> 
18445
(
0.00114847
-0.00134347
0.00106865
0.00141005
-0.00132459
0.00106301
0.00165363
-0.0012982
0.00105462
0.00186032
-0.00125139
0.0010447
0.00200947
-0.00117847
0.00102933
-0.00105528
0.00153253
-0.00227092
0.000548012
0.00191602
-0.00226096
0.000552886
0.0023055
-0.00224424
0.000556567
0.00268622
-0.00220198
0.000569873
0.00304127
-0.00212455
0.000591016
-0.00196654
0.000639639
0.00150835
-0.00223695
-0.00041452
0.00190341
-0.00224235
-0.000413669
0.00232442
-0.00224553
-0.000419726
0.00276448
-0.00223151
-0.000410528
0.00322343
-0.00219199
-0.000391505
-0.00207872
-0.000291509
0.00139879
-0.00101192
-0.00158573
0.00177792
-0.00102661
-0.00159487
0.00219525
-0.00103895
-0.00162392
0.00265426
-0.00104688
-0.00164364
0.00318876
-0.00104904
-0.00167745
-0.00102842
-0.00159562
0.00140197
-0.00141964
0.00177439
3.78416e-05
-0.00143686
0.00217826
2.92895e-05
-0.00147211
0.00261158
2.86491e-05
-0.00150886
0.00311378
3.76618e-05
-0.0015889
6.4574e-05
-0.00162546
0.00171954
0.0011737
-0.0015116
0.00213694
0.00115003
-0.00153813
0.00259531
0.00113173
-0.00156145
0.00312838
0.00111838
-0.00161378
0.001123
-0.00162001
0.00169543
0.00222743
-0.00142821
0.00211443
0.00218412
-0.00145309
0.0025803
0.00213965
-0.00147379
0.00312184
0.0020909
-0.00151406
0.00205311
-0.00150232
0.00164692
0.00323975
-0.00138017
0.00206177
0.0031745
-0.00140523
0.00252784
0.00309969
-0.00142611
0.00307286
0.00300984
-0.00146396
0.00291993
-0.00144606
0.00157641
0.00421123
-0.00132628
0.00197829
0.00412511
-0.00135248
0.00243314
0.00402081
-0.00137597
0.00297038
0.00389175
-0.00141915
0.003748
-0.00140741
0.00148714
0.0051149
-0.0012397
0.00186809
0.00501102
-0.00126686
0.00230108
0.00488145
-0.00129363
0.00281764
0.00472088
-0.0013457
0.00452918
-0.00134903
0.001378
0.00592745
-0.00112455
0.00173119
0.00581246
-0.00115464
0.00213378
0.00566611
-0.00118725
0.00262004
0.00548718
-0.00125256
0.00525813
-0.00127691
0.00126324
0.00644437
-0.000803954
0.00158743
0.00631907
-0.0008308
0.00195695
0.00615757
-0.000860981
0.00240163
0.00596265
-0.000920145
0.00570457
-0.000943855
0.00113496
0.00664132
-0.000455979
0.00142673
0.00650929
-0.000481983
0.00175866
0.00633937
-0.000513731
0.00215409
0.00613687
-0.000569647
0.00586544
-0.000595463
0.000993261
0.0065641
-0.000152114
0.00125129
0.0064289
-0.000177631
0.00154422
0.00625662
-0.000210184
0.00188803
0.00605504
-0.000261977
0.00578577
-0.000290215
0.000841904
0.00629797
6.68736e-05
0.00106611
0.00616308
4.16086e-05
0.00132018
0.00599342
9.13223e-06
0.00161437
0.00579734
-3.64921e-05
0.00553936
-6.33057e-05
0.000688727
0.00592353
0.000203627
0.00088103
0.0057921
0.00017868
0.0010982
0.00562919
0.000147063
0.00134626
0.00544123
0.000108047
0.00519877
8.50071e-05
0.000537813
0.0055024
0.0002762
0.000701529
0.00537573
0.000252651
0.000886024
0.00522111
0.000223585
0.00109315
0.00504319
0.000190917
0.00481838
0.000172583
0.000390523
0.00507725
0.000303393
0.000529101
0.00495532
0.000281834
0.000685169
0.00480892
0.00025612
0.000857287
0.00464113
0.000229937
0.00443349
0.00021731
0.000246516
0.004675
0.000300869
0.000363344
0.00455658
0.000281912
0.000495053
0.00441695
0.000260264
0.000637746
0.0042579
0.000240544
0.00406524
0.000233719
0.000103809
0.00431056
0.000280796
0.000202053
0.00419343
0.000264901
0.000313257
0.00405799
0.000247752
0.000431643
0.00390531
0.000234204
0.00372445
0.000232991
-4.10034e-05
0.00398976
0.000252513
4.18276e-05
0.00387076
0.000239843
0.000136042
0.0037366
0.000227176
0.000234705
0.00358728
0.000219359
0.00341444
0.000223172
-0.000191637
0.00371172
0.000222696
-0.000121745
0.00358755
0.000213316
-4.12294e-05
0.00345121
0.000204883
4.22783e-05
0.0033018
0.000201981
0.0031337
0.00020967
-0.000352723
0.00347141
0.000195452
-0.000292769
0.00333827
0.000189331
-0.000222618
0.00319609
0.000184966
-0.000150512
0.00304374
0.000185946
0.00287743
0.000196229
-0.000529089
0.00326056
0.000173813
-0.000475834
0.00311501
0.000170001
-0.000412477
0.00296364
0.000169089
-0.000347688
0.00280561
0.00017334
0.00263884
0.000184774
-0.000725299
0.00306841
0.000160085
-0.000675227
0.0029078
0.000157134
-0.000614476
0.00274501
0.000157877
-0.000552364
0.00257951
0.000163992
0.00241089
0.000175559
-0.00094508
0.00288231
0.000155434
-0.000894134
0.00270521
0.000151648
-0.000831491
0.0025302
0.000152166
-0.000766886
0.00235717
0.000157741
0.00218682
0.000167708
-0.00119087
0.00268824
0.000160239
-0.00113413
0.00249505
0.000153416
-0.00106444
0.0023089
0.000151615
-0.000991945
0.00213006
0.000154613
0.0019599
0.000160934
-0.00146332
0.00247103
0.000174273
-0.00139478
0.00226488
0.000161639
-0.0013121
0.0020711
0.000155111
-0.00122586
0.00189026
0.000153564
0.00172385
0.000154778
-0.00175959
0.00221577
0.000196084
-0.00167245
0.00200314
0.000174606
-0.00157035
0.00180809
0.000160912
-0.00146445
0.00163126
0.000153094
0.00147382
0.000148244
-0.00207317
0.00190777
0.000223768
-0.00195984
0.00169975
0.000190063
-0.00183183
0.00151318
0.000166897
-0.00170083
0.0013487
0.00015156
0.00120699
0.000140303
-0.00238949
0.00153903
0.000251918
-0.00224378
0.0013501
0.000203939
-0.00208491
0.00118423
0.00017008
-0.00192517
0.00104205
0.00014692
0.000923867
0.000129557
-0.00268925
0.00110568
0.000276544
-0.00250671
0.000954971
0.000212589
-0.00231456
0.000824557
0.000167526
-0.00212517
0.000715892
0.000136761
0.000629862
0.000113597
-0.00294293
0.000626785
0.000284246
-0.00272619
0.000530865
0.000207364
-0.0025036
0.000448926
0.000153047
-0.00228721
0.000383617
0.00011588
0.000337739
8.72163e-05
-0.00311915
0.000134392
0.000270461
-0.00287783
0.000105145
0.000184396
-0.00263308
8.13532e-05
0.000122826
-0.00239667
6.76115e-05
7.95932e-05
6.99601e-05
4.47404e-05
-0.00322954
-0.000314594
0.000210404
-0.00297363
-0.000273511
0.000122739
-0.00271542
-0.00023628
5.94256e-05
-0.00246424
-0.000200021
1.64575e-05
-0.000157807
-1.46237e-05
-0.00326367
-0.000648051
0.000100669
-0.00300826
-0.000551519
2.25943e-05
-0.00274127
-0.000474144
-2.9123e-05
-0.00247153
-0.000409456
-6.03035e-05
-0.000347859
-7.90092e-05
-0.00325479
-0.000837414
-2.43089e-05
-0.00300003
-0.000721289
-8.49919e-05
-0.00271837
-0.000634763
-0.000121037
-0.00242457
-0.000563568
-0.000139687
-0.000495778
-0.000149541
-0.00320633
-0.000876018
-0.000154178
-0.00295169
-0.000778962
-0.000196964
-0.00266008
-0.000704208
-0.000222166
-0.00234758
-0.000640775
-0.000235293
-0.000579246
-0.000241226
-0.00309843
-0.000756771
-0.000292544
-0.00285314
-0.000695044
-0.000329204
-0.00256002
-0.000645837
-0.000351488
-0.00223538
-0.000602457
-0.000362961
-0.000558775
-0.000366718
-0.0027837
-0.000444255
-0.000440455
-0.00257759
-0.000429184
-0.000471971
-0.00231455
-0.000415519
-0.000493352
-0.00200944
-0.000401029
-0.000506541
-0.000383766
-0.000512682
-0.00172989
-0.000457959
-0.00165258
-0.000506496
-0.00152143
-0.000546667
-0.00134299
-0.000579468
-0.000605553
0.00151059
-0.0012479
0.00194355
0.00187685
-0.0012312
0.00192795
0.00222999
-0.00120447
0.00190595
0.00254622
-0.00115063
0.0018791
-0.00106248
0.00184231
0.00171214
-0.00200695
0.000875908
0.00215269
-0.00199482
0.000875955
0.00260382
-0.00197259
0.000873563
0.00304932
-0.00191525
0.000888994
0.00346919
-0.00181293
0.000921592
-0.00161451
0.00155958
-0.0018971
-0.000924353
0.00197824
-0.00189746
-0.000929684
0.00242555
-0.00189332
-0.000946312
0.00289625
-0.00186013
-0.000936349
0.00339312
-0.00179278
-0.000908524
-0.00162625
-0.000727812
0.00126168
-0.000704002
-0.00310951
0.00161426
-0.000710918
-0.00313399
0.00200125
-0.000716268
-0.00318797
0.00243643
-0.000709201
-0.00322974
0.00295215
-0.000693065
-0.00329288
-0.00062497
-0.00315432
0.00126048
0.000357603
-0.00280757
0.00160519
0.000345193
-0.00283769
0.00197632
0.000334735
-0.00289423
0.00238077
0.000332971
-0.00295548
0.00284618
0.000335999
-0.00308337
0.0003671
-0.00313441
0.00123057
-0.00284419
0.00158148
0.00135111
-0.00286843
0.0019688
0.00132381
-0.00291452
0.00240021
0.00130057
-0.00296046
0.00289699
0.00127699
-0.00305156
0.0012749
-0.00307317
0.00156362
0.00233697
-0.00276554
0.00195495
0.00228745
-0.00280806
0.00239547
0.0022346
-0.00284833
0.00290392
0.00217304
-0.00291856
0.00212556
-0.00291443
0.00152444
0.00331181
-0.00270141
0.00191249
0.00323725
-0.00274308
0.00235286
0.00315049
-0.00278238
0.00286533
0.00304516
-0.00284856
0.00294334
-0.00283733
0.00146385
0.00428803
-0.0026371
0.00183927
0.00418889
-0.00267954
0.00226753
0.0040682
-0.00272193
0.00277166
0.0039196
-0.00279772
0.00375932
-0.00280088
0.00138569
0.00526265
-0.00253178
0.00174083
0.00514144
-0.00257456
0.00214651
0.0049897
-0.0026208
0.00262877
0.00480363
-0.00271199
0.00458638
-0.00274266
0.00128784
0.00624296
-0.00239997
0.00161614
0.0061059
-0.0024474
0.00199127
0.0059301
-0.00250278
0.00244433
0.00571815
-0.00262014
0.0054526
-0.00269085
0.00120118
0.00697453
-0.00181167
0.00150724
0.00681995
-0.00185092
0.00185567
0.00661816
-0.00189748
0.00227528
0.00637624
-0.00199784
0.00606772
-0.00205085
0.00111102
0.00745303
-0.00118985
0.00139295
0.00728383
-0.00122778
0.00171233
0.00706261
-0.00127756
0.00209492
0.00679798
-0.00137397
0.00646297
-0.00142659
0.00102008
0.00772498
-0.000660388
0.00127976
0.00754662
-0.000700098
0.00157139
0.00731476
-0.000753965
0.00191602
0.00703756
-0.000846189
0.00669333
-0.000905259
0.000928478
0.00784894
-0.000276382
0.00116874
0.00766738
-0.00031941
0.0014367
0.00743333
-0.000377403
0.00174758
0.00715384
-0.00046366
0.00681266
-0.000523284
0.000834547
0.00786163
-1.29203e-05
0.00105755
0.00768185
-5.87906e-05
0.00130505
0.00745272
-0.000119825
0.00158707
0.00718012
-0.000200257
0.00684982
-0.000255473
0.000731914
0.00779538
0.000153236
0.000939996
0.00761972
0.000106698
0.00117074
0.00739921
4.63467e-05
0.00142891
0.0071382
-2.5328e-05
0.00682257
-7.14909e-05
0.000620542
0.00768009
0.000244453
0.000813485
0.0075081
0.000200508
0.00102795
0.0072955
0.000145366
0.00126518
0.00704535
8.55613e-05
0.00674446
5.25424e-05
0.000501876
0.00753747
0.000283861
0.000680159
0.00736761
0.000244118
0.0008786
0.00716085
0.000196473
0.00109557
0.00691861
0.000150324
0.00662849
0.000132461
0.000376021
0.00738272
0.00028973
0.000540498
0.00721243
0.000255606
0.000723728
0.00700833
0.000217037
0.000921719
0.0067702
0.000184621
0.00648626
0.00018172
0.000241753
0.00722557
0.00027657
0.000393587
0.00705132
0.000249118
0.000562753
0.00684595
0.000220393
0.000743186
0.00660758
0.000201545
0.00632516
0.000212372
9.67659e-05
0.00707105
0.000255541
0.000237364
0.00688891
0.000235136
0.000393994
0.00667764
0.000216562
0.000558625
0.00643453
0.000210397
0.00614935
0.000232698
-6.1994e-05
0.00691952
0.00023584
6.90999e-05
0.00672565
0.000221493
0.000214946
0.00650466
0.000212099
0.000366201
0.00625199
0.000217235
0.00596031
0.000248535
-0.000237196
0.00676731
0.000223818
-0.000114332
0.00655835
0.000214432
2.311e-05
0.00632418
0.000212132
0.000163694
0.0060592
0.000225548
0.00575809
0.000262752
-0.00043222
0.00660815
0.000223773
-0.000315034
0.00638086
0.00021744
-0.000183859
0.00613069
0.000220193
-5.1163e-05
0.00585223
0.000238261
0.00554048
0.000277023
-0.000650648
0.00643305
0.000238734
-0.000535892
0.00618543
0.00023233
-0.000407643
0.00591763
0.000236972
-0.000278993
0.00562489
0.000256431
0.00530392
0.000292508
-0.000895751
0.00623076
0.000270249
-0.000779214
0.00596277
0.000259541
-0.000649681
0.00567777
0.000261939
-0.000520867
0.00537206
0.000278628
0.00504447
0.000308257
-0.0011702
0.00598807
0.000318503
-0.00104644
0.00570259
0.000298056
-0.000910458
0.00540357
0.000293327
-0.000776446
0.00508883
0.000302782
0.00475958
0.000322218
-0.00147472
0.00569128
0.000381196
-0.00133727
0.00539483
0.000344921
-0.00118892
0.00508821
0.000327927
-0.00104418
0.00477126
0.00032592
0.00444784
0.000332081
-0.00180833
0.0053261
0.000454742
-0.00164946
0.00503023
0.000395798
-0.00148219
0.0047264
0.000361444
-0.00132098
0.00441721
0.000344392
0.00410956
0.000335221
-0.00216406
0.00488393
0.000528991
-0.00197671
0.00460393
0.000442884
-0.00178455
0.0043165
0.000387822
-0.00160176
0.00402761
0.000353736
0.0037474
0.000328653
-0.00253312
0.00435907
0.00059536
-0.00231037
0.00411538
0.000478388
-0.00208832
0.00386113
0.000400842
-0.00188014
0.00360678
0.00034942
0.00336605
0.000309352
-0.00289627
0.00376498
0.000630184
-0.0026368
0.00357497
0.00048831
-0.00238363
0.00336905
0.000391955
-0.00214913
0.00316204
0.000326111
0.00297048
0.000274093
-0.00323557
0.00312805
0.000621565
-0.00294311
0.00300248
0.000464431
-0.00266175
0.00285456
0.000355952
-0.00240274
0.00270196
0.000280674
0.00256117
0.00022157
-0.00354659
0.00246342
0.000556581
-0.00322592
0.00240742
0.000397132
-0.00291763
0.00231874
0.000286949
-0.0026308
0.00222094
0.000210642
0.00213175
0.000151548
-0.00381344
0.00178565
0.000432811
-0.00346308
0.00179331
0.000286333
-0.00312309
0.00176505
0.000184587
-0.00280305
0.00172703
0.000113573
0.00169584
5.87722e-05
-0.00399152
0.00112603
0.000261608
-0.00361457
0.00119836
0.000133012
-0.00324925
0.00123482
4.38682e-05
-0.00290073
0.00125607
-1.72522e-05
0.00127617
-6.19785e-05
-0.00405868
0.000572818
2.76761e-05
-0.00367635
0.000688826
-6.97505e-05
-0.00329483
0.000767611
-0.000136471
-0.00291999
0.000825643
-0.000179709
0.000875363
-0.000207629
-0.00404741
0.000167134
-0.000244557
-0.00366046
0.000279949
-0.000307277
-0.00326033
0.000363189
-0.000347198
-0.0028565
0.000429382
-0.000370529
0.00048723
-0.00038239
-0.00389054
-6.60343e-05
-0.000521211
-0.00352069
-3.03442e-06
-0.000558838
-0.00311824
4.93642e-05
-0.000581973
-0.00269827
9.61316e-05
-0.000593268
0.000139356
-0.000595563
-0.00301402
-0.000697489
-0.00277245
-0.000751097
-0.00247911
-0.000790641
-0.00214319
-0.000819258
-0.000837763
0.0016061
-0.000829507
0.00237803
0.00199032
-0.000800309
0.00234405
0.00235248
-0.000754041
0.00229783
0.00266459
-0.000667835
0.00223483
-0.000538011
0.00215238
0.00175076
-0.00145108
0.0010572
0.00219784
-0.00141973
0.0010483
0.00265084
-0.00137028
0.0010368
0.00308306
-0.00126655
0.00105549
-0.00109928
0.00109989
0.00150229
-0.001478
-0.00128105
0.00190093
-0.00146063
-0.00128743
0.00232329
-0.00143459
-0.00130436
0.00276015
-0.00135649
-0.00128328
0.00321966
-0.00123076
-0.00123655
-0.000946566
0.00100918
-0.000448678
-0.00440543
0.00129494
-0.000445041
-0.00443533
0.00160622
-0.000438524
-0.00449531
0.00196858
-0.00040712
-0.00454148
0.00241467
-0.000363322
-0.00460641
-0.000223079
-0.00439932
0.00101276
0.000466112
-0.00398666
0.00129311
0.000459683
-0.00402277
0.00159072
0.000455447
-0.00408582
0.00192135
0.000463313
-0.00415654
0.00230633
0.000473178
-0.00430486
0.000527926
-0.00434645
0.00100038
0.00132937
-0.00397548
0.00129018
0.00130679
-0.00400533
0.001609
0.0012804
-0.0040583
0.0019696
0.00125757
-0.00411531
0.00238912
0.00122849
-0.00422639
0.00122744
-0.00425648
0.000988162
-0.00386884
0.00127858
0.00214729
-0.00389647
0.00160126
0.00209482
-0.00394516
0.00196845
0.00203697
-0.00399491
0.00239486
0.00196415
-0.00408062
0.00190736
-0.00408681
0.00124244
0.00299017
-0.00382907
0.0015602
0.00290975
-0.00387578
0.00192379
0.00281447
-0.00392347
0.00234969
0.00269478
-0.00400509
0.00257702
-0.00400805
0.00118149
0.00385742
-0.00377606
0.00148385
0.00375031
-0.00382245
0.00183092
0.00361836
-0.00387289
0.0022425
0.00345376
-0.00396829
0.00327041
-0.00399574
0.00110056
0.00476466
-0.00369218
0.00137945
0.00463378
-0.00373692
0.00169919
0.00446736
-0.00378953
0.002081
0.00426411
-0.00390416
0.00401273
-0.00396564
0.000989441
0.00576645
-0.00362917
0.00123598
0.00561837
-0.00367852
0.00151903
0.00542238
-0.00374085
0.00186452
0.00519212
-0.00389364
0.00488057
-0.00400766
0.000895149
0.00640845
-0.00266071
0.00111707
0.0062364
-0.00269087
0.00136745
0.00600209
-0.00272756
0.00166874
0.00572827
-0.00283529
0.00536044
-0.0028731
0.000782787
0.00674894
-0.0017092
0.000972254
0.00655608
-0.00173692
0.00118265
0.00629423
-0.0017801
0.00143713
0.00598793
-0.00188811
0.00559228
-0.00192158
0.000668691
0.00689457
-0.000960267
0.000830551
0.00668655
-0.000992432
0.0010056
0.00640837
-0.00104316
0.00121374
0.00608382
-0.00115021
0.00568602
-0.00120433
0.000558516
0.00695718
-0.000474003
0.000700017
0.00673931
-0.000513667
0.000850354
0.0064525
-0.000571867
0.00102403
0.0061188
-0.000672314
0.00573018
-0.000734416
0.000455701
0.0069927
-0.000168242
0.000581797
0.00676895
-0.000214529
0.000715045
0.00647736
-0.000277936
0.000865058
0.00613964
-0.000371116
0.00576523
-0.000432598
0.000365676
0.00701866
1.72449e-05
0.000480535
0.00679441
-3.3626e-05
0.00059932
0.00650511
-0.000100187
0.000731049
0.00616683
-0.000184247
0.00580673
-0.000239436
0.000277033
0.0070344
0.000124442
0.000388098
0.00681221
7.16463e-05
0.000500842
0.00653166
6.07694e-06
0.000619369
0.00620248
-6.86087e-05
0.00585675
-0.000113157
0.00018313
0.00704465
0.000174749
0.000291256
0.00682338
0.000124825
0.000403766
0.00655005
6.55714e-05
0.000517879
0.00623492
3.76791e-06
0.00590618
-2.39429e-05
8.14265e-05
0.00705198
0.000188686
0.000186414
0.0068295
0.000144498
0.000297334
0.00656092
9.52461e-05
0.000408818
0.00625713
5.09315e-05
0.00594417
4.34182e-05
-3.05324e-05
0.00705669
0.000183038
7.11868e-05
0.00683062
0.000146281
0.000179684
0.00656375
0.000109063
0.000287811
0.00626723
8.33109e-05
0.00596553
9.5999e-05
-0.000155372
0.00705763
0.000170294
-5.6837e-05
0.00682496
0.000142253
4.9069e-05
0.00655665
0.000117758
0.000153463
0.00626366
0.000109574
0.00596753
0.000139943
-0.000295972
0.007053
0.00016
-0.000200024
0.00680962
0.000140896
-9.65875e-05
0.00653637
0.000128938
4.97389e-06
0.00624331
0.000136031
0.00594859
0.000179534
-0.000455307
0.00703954
0.000159472
-0.000360815
0.00678128
0.00014828
-0.000258565
0.00649903
0.000147226
-0.000158314
0.00620211
0.000166493
0.00590658
0.000217656
-0.000636405
0.00701221
0.000174011
-0.000541382
0.00673526
0.000168428
-0.000438123
0.00644062
0.00017535
-0.000336754
0.00613675
0.000202251
0.00583799
0.000255834
-0.000842181
0.00696404
0.000207376
-0.000743492
0.00666544
0.000203465
-0.000636044
0.00635609
0.000214052
-0.000529913
0.00604364
0.00024341
0.00574059
0.000293699
-0.00107512
0.006886
0.000261596
-0.000968217
0.00656438
0.000253701
-0.000852183
0.00623969
0.000262302
-0.000736946
0.00591876
0.000288277
0.00561225
0.00032985
-0.00133724
0.0067665
0.000337128
-0.00121584
0.00642333
0.000317711
-0.0010856
0.00608522
0.000317554
-0.000956256
0.00575821
0.000333983
0.00545122
0.000361863
-0.0016285
0.00659271
0.000431021
-0.00148502
0.00623324
0.000391535
-0.00133419
0.00588682
0.000375495
-0.00118553
0.00555887
0.000376599
0.00525674
0.000386753
-0.0019483
0.00634864
0.000539092
-0.00177329
0.00598439
0.00046963
-0.00159485
0.00563926
0.000430566
-0.00142182
0.00531876
0.00041147
0.00502924
0.000401216
-0.00228872
0.00602414
0.000647426
-0.00207413
0.00567109
0.000541608
-0.00186232
0.00534035
0.000474919
-0.00166105
0.00503823
0.000432995
0.00477081
0.000401671
-0.00264384
0.00560532
0.000746213
-0.00238087
0.00528859
0.000597919
-0.00213084
0.00499022
0.000500939
-0.00189877
0.00471972
0.000435872
0.00448478
0.00038496
-0.00299014
0.0051063
0.000802131
-0.00267954
0.00484594
0.000620352
-0.00239172
0.00459586
0.000498494
-0.00212938
0.00436889
0.000414591
0.00417526
0.000348647
-0.00331125
0.00454915
0.000801088
-0.0029589
0.00435857
0.000599451
-0.00263734
0.00416785
0.000462402
-0.00234739
0.00399242
0.0003672
0.00384503
0.000293387
-0.00359937
0.00395076
0.00073507
-0.00321245
0.00383789
0.000530904
-0.00286206
0.0037125
0.000391909
-0.00254713
0.00359252
0.000295613
0.00349257
0.000222504
-0.00384176
0.00332825
0.000606944
-0.0034303
0.0032927
0.000420046
-0.00305738
0.00323147
0.000292707
-0.00272013
0.00316391
0.000204929
0.00310568
0.00013984
-0.00402958
0.00269115
0.000437553
-0.00360316
0.00271834
0.000280953
-0.00321153
0.00270966
0.000174048
-0.00285202
0.002687
0.000100147
0.00266526
4.62873e-05
-0.0041412
0.00203885
0.000232544
-0.00371354
0.00210358
0.000117344
-0.00330959
0.00213258
3.66636e-05
-0.00292893
0.00214577
-1.91419e-05
0.00215525
-5.85086e-05
-0.00418216
0.00134764
1.65197e-05
-0.00375733
0.00143217
-6.07012e-05
-0.00334237
0.00148497
-0.000114534
-0.00293794
0.00152117
-0.000150363
0.00155035
-0.000173197
-0.00411427
0.000625616
-0.000192344
-0.00370062
0.000697453
-0.000237772
-0.00327777
0.000748596
-0.000268446
-0.00285063
0.000787955
-0.000287197
0.000821125
-0.000296722
-0.0034646
-0.00033228
-0.00314786
-0.000370388
-0.00279258
-0.000397324
-0.00240857
-0.000415311
-0.000425595
0.00159513
-0.000120938
0.00211461
0.00195963
-7.85383e-05
0.00205808
0.00229155
-1.82916e-05
0.0019842
0.00256421
7.49439e-05
0.00188723
0.000193569
0.00177201
0.00179919
-0.000496384
0.000989845
0.00223862
-0.000434255
0.00096459
0.0026677
-0.000345156
0.00093459
0.00305493
-0.000186749
0.00092996
2.77674e-05
0.000946668
0.0015162
-0.00093692
-0.00121696
0.00189863
-0.00089804
-0.00120607
0.00229277
-0.000847112
-0.00119654
0.00267229
-0.000716839
-0.0011327
-0.000522518
-0.00108541
0.000780393
-0.00019416
-0.00535351
0.000999172
-0.000177465
-0.00537469
0.00123193
-0.000156094
-0.00541908
0.0015157
-9.65005e-05
-0.00544559
0.00188361
-2.16513e-05
-0.00547519
0.000198101
0.000787466
0.000517516
-0.00490313
0.00100536
0.000518581
-0.00493671
0.00123207
0.000522968
-0.00499159
0.00149314
0.000543804
-0.00505791
0.00180011
0.000566575
-0.00520005
0.000652271
-0.00521274
0.000784998
0.00119777
-0.0048664
0.00101353
0.00117961
-0.0048949
0.00126371
0.00115775
-0.00494326
0.00155395
0.0011397
-0.00500145
0.00189818
0.00111101
-0.00511506
0.00111776
-0.00514893
0.000777322
0.00189054
-0.00477209
0.0010064
0.0018528
-0.00479873
0.00125994
0.00180314
-0.00484408
0.00155293
0.00174759
-0.00489578
0.00189767
0.00167215
-0.0049865
0.00161459
-0.00500961
0.0007505
0.00260333
-0.00472097
0.000973813
0.00254576
-0.00474534
0.00122124
0.00246813
-0.0047882
0.00150747
0.00237546
-0.00483758
0.00184655
0.00225431
-0.00492633
0.00213317
-0.0049544
0.000704822
-0.00470919
0.000914695
0.0032908
-0.00473097
0.00114486
0.00318725
-0.00477174
0.00141126
0.00305882
-0.00482265
0.0017291
0.00289524
-0.00492706
0.00270354
-0.00498738
0.000834869
0.00411862
-0.00471136
0.00103951
0.00399253
-0.00474684
0.00127609
0.00382829
-0.00479558
0.00155477
0.00362939
-0.00491699
0.00335678
-0.00500406
0.00070702
0.00519157
-0.00486404
0.000871651
0.00504856
-0.00489919
0.00106512
0.00484577
-0.00495179
0.00129236
0.00461805
-0.00510953
0.0042602
-0.00523481
0.00060045
0.00564066
-0.00325005
0.00073502
0.00546983
-0.0032467
0.000878936
0.00521563
-0.00324134
0.00102889
0.00493436
-0.00330155
0.00451734
-0.00323179
0.000422933
0.00565805
-0.00181886
0.000501483
0.00546852
-0.00181417
0.000574931
0.0051893
-0.00182722
0.000649837
0.00488269
-0.00191135
0.00447511
-0.00185519
0.000245172
0.0055327
-0.000889567
0.000280302
0.00532853
-0.000887565
0.000292407
0.00503552
-0.00090149
0.000287509
0.00471782
-0.000980437
0.00435254
-0.000977793
7.88604e-05
0.00541801
-0.000383117
8.10257e-05
0.00520316
-0.00039047
5.35252e-05
0.00490693
-0.000415772
-3.31937e-06
0.00458965
-0.000487301
0.00427413
-0.00050866
-7.22577e-05
0.00532734
-7.67147e-05
-9.53252e-05
0.00511074
-9.90428e-05
-0.000150545
0.00482667
-0.000142453
-0.000237794
0.00452179
-0.000216009
0.00426048
-0.000256306
-0.000219163
0.00527943
8.30138e-05
-0.000253623
0.00506391
4.76641e-05
-0.000319636
0.00479677
-4.27073e-06
-0.000423689
0.00451655
-7.49472e-05
0.00430503
-0.000121219
-0.000363064
0.0052818
0.000153257
-0.000406924
0.00506755
0.000111869
-0.000473644
0.0048123
5.72623e-05
-0.000577081
0.00455836
-6.98197e-06
0.00439225
-4.88256e-05
-0.000501769
0.00532542
0.000169844
-0.000549854
0.0051129
0.000127567
-0.000617551
0.00486933
7.62355e-05
-0.000714215
0.00463639
2.23984e-05
0.00450617
-8.91824e-06
-0.000640165
0.00539621
0.000160272
-0.000688101
0.00518414
0.000121192
-0.000751094
0.0049507
7.68746e-05
-0.000837167
0.00473818
3.5211e-05
0.00463393
1.86319e-05
-0.00078318
0.00548224
0.000140096
-0.000827744
0.00526821
0.000106774
-0.000882535
0.00504267
7.18814e-05
-0.000953392
0.00484823
4.41257e-05
0.00476179
4.34198e-05
-0.000935295
0.00557451
0.000119208
-0.000973643
0.0053557
9.31072e-05
-0.00101727
0.00513538
6.86798e-05
-0.00106961
0.0049551
5.50323e-05
0.00487875
6.9225e-05
-0.00110022
0.00566657
0.000104426
-0.00112942
0.00543976
8.60395e-05
-0.00115881
0.00522162
7.20905e-05
-0.0011897
0.00505076
7.12635e-05
0.00497745
9.73623e-05
-0.00128092
0.00575349
0.000100892
-0.00129752
0.00551508
8.95492e-05
-0.00130924
0.00529564
8.49327e-05
-0.00131577
0.00512924
9.4536e-05
0.00505306
0.000128323
-0.00147974
0.00583062
0.000112649
-0.00147941
0.00557684
0.000106346
-0.00146948
0.00535245
0.000108606
-0.00144878
0.00518575
0.000125046
0.00510233
0.000161937
-0.00169839
0.00589238
0.000142941
-0.00167578
0.00561967
0.000138024
-0.00163961
0.00538704
0.000143288
-0.00158866
0.0052162
0.000162006
0.00512285
0.000197026
-0.00193777
0.0059315
0.000193821
-0.00188642
0.00563721
0.000184814
-0.00181895
0.00539404
0.00018783
-0.00173478
0.00521679
0.000203514
0.00511277
0.000231696
-0.00219847
0.00593753
0.00026637
-0.00211055
0.00562141
0.000245583
-0.00200627
0.00536753
0.0002398
-0.00188604
0.00518384
0.000246691
0.00507061
0.000263381
-0.00247857
0.00589815
0.000358168
-0.00234574
0.00556346
0.000316662
-0.00219939
0.00530163
0.000295036
-0.00204078
0.00511421
0.000287626
0.0049954
0.000288985
-0.00277734
0.00579436
0.000466658
-0.00258955
0.00545209
0.000393202
-0.0023958
0.00519016
0.000348288
-0.00219708
0.00500518
0.00032177
0.0048867
0.000305185
-0.00308309
0.00561473
0.000576999
-0.00283432
0.00528037
0.000464552
-0.0025907
0.00502976
0.000391708
-0.00235194
0.00485581
0.000343608
0.00474493
0.000308522
-0.00339318
0.00533387
0.000682817
-0.00307528
0.00503793
0.000522449
-0.0027801
0.00481717
0.000418345
-0.00250254
0.00466574
0.000348377
0.00457061
0.000296387
-0.00367274
0.00497217
0.000743488
-0.00329556
0.00473432
0.000546785
-0.0029556
0.00455754
0.000418171
-0.00264437
0.00443776
0.000331342
0.00436473
0.000267301
-0.00391008
0.00454828
0.000747822
-0.00348735
0.00438082
0.000530231
-0.00311216
0.00425686
0.000387885
-0.00277379
0.00417439
0.000292203
0.00412708
0.00022311
-0.00410365
0.00407387
0.000691019
-0.00364837
0.00398435
0.000472093
-0.00324705
0.00391767
0.000329779
-0.0028872
0.00387492
0.000235227
0.00385425
0.000168991
-0.00424516
0.00356364
0.000579339
-0.00377293
0.0035509
0.000381275
-0.00335514
0.00353907
0.000253525
-0.00297881
0.00353353
0.000169988
0.00353681
0.0001136
-0.0043347
0.00301914
0.000444363
-0.00385859
0.00307381
0.000281932
-0.00343167
0.003108
0.000178191
-0.00304165
0.00313209
0.000111565
0.00315267
6.85184e-05
-0.00435504
0.00244842
0.000308276
-0.00389548
0.00253485
0.000196752
-0.00346765
0.00259297
0.000123862
-0.00306511
0.00263392
7.64812e-05
0.00266513
4.61303e-05
-0.00433424
0.00177323
0.000229991
-0.00388679
0.00186737
0.000159334
-0.00345465
0.00193357
0.000112731
-0.0030357
0.0019823
8.23079e-05
0.00202028
6.27127e-05
-0.00423019
0.000940259
0.000220897
-0.00379974
0.00101675
0.000182412
-0.00336561
0.00107437
0.000156613
-0.00293005
0.00111965
0.000139894
0.00115688
0.000129256
-0.00362176
0.000312007
-0.00327961
0.000304204
-0.00290543
0.000302868
-0.00250638
0.000305293
0.000309335
0.00150881
0.000598272
0.00116128
0.00183774
0.000619401
0.00110976
0.00212884
0.000646568
0.00104653
0.00236096
0.000683232
0.000971882
0.000722954
0.000892614
0.00172916
0.000606126
0.000569112
0.00212283
0.000651442
0.000538879
0.00248855
0.000712536
0.000502905
0.0028087
0.000820581
0.000472458
0.000942658
0.000453854
0.00155889
-0.000253119
-0.00073159
0.00192696
-0.000199538
-0.000723161
0.00229344
-0.000136052
-0.000714437
0.00262593
2.00851e-05
-0.000664699
0.000198622
-0.00064103
0.000577059
9.21835e-05
-0.00584986
0.000733985
0.000117464
-0.00584862
0.000892057
0.000147643
-0.00586085
0.00109748
0.000222673
-0.0058536
0.000310231
-0.00588143
0.00058577
0.000547353
-0.00550981
0.000746344
0.000553197
-0.00553302
0.000909046
0.000562581
-0.00556923
0.00110563
0.000590055
-0.00562188
0.00133774
0.000619528
-0.00574146
0.000728453
0.000589047
0.0010205
-0.00549714
0.000759312
0.00100753
-0.00551949
0.000943559
0.000991254
-0.00555618
0.00116356
0.000978293
-0.00560969
0.00143004
0.000951299
-0.00571331
0.000962052
-0.00574663
0.000584931
0.0015325
-0.00544185
0.000755485
0.00150147
-0.00546322
0.000941854
0.0014596
-0.0054988
0.00115996
0.00141199
-0.00554758
0.00141951
0.00134108
-0.00563583
0.00128475
-0.00567978
0.000562542
0.00208471
-0.00542621
0.000727668
0.0020362
-0.0054452
0.000907133
0.00196984
-0.0054779
0.00111548
0.00189016
-0.00552409
0.00136114
0.00177987
-0.00561079
0.00166471
-0.00566734
0.000521289
0.00271647
-0.00548341
0.000673774
0.00265149
-0.00549875
0.000835511
0.00256296
-0.00552659
0.00102167
0.00245238
-0.00557103
0.00123558
0.00230518
-0.00566628
0.00211896
-0.00575212
0.000464995
-0.00555891
0.000600837
0.00337211
-0.00556781
0.00073682
0.0032659
-0.00558578
0.000892882
0.00312246
-0.00562172
0.00105354
0.0029488
-0.00572126
0.00267571
-0.00581134
0.000463333
0.00445712
-0.00605381
0.000552056
0.0043357
-0.00605771
0.000657259
0.00414251
-0.00607705
0.000733536
0.00393974
-0.00617675
0.00356458
-0.00625425
0.000351514
0.0044371