/*--------------------------------*- C++ -*----------------------------------*\
| =========                 |                                                 |
| \\      /  F ield         | OpenFOAM: The Open Source CFD Toolbox           |
|  \\    /   O peration     | Version:  2.3.1                                 |
|   \\  /    A nd           | Web:      www.OpenFOAM.org                      |
|    \\/     M anipulation  |                                                 |
\*---------------------------------------------------------------------------*/
FoamFile
{
    version     2.0;
    format      ascii;
    class       volVectorField;
    location    "600";
    object      U;
}
// * * * * * * * * * * * * * * * * * * * * * * * * * * * * * * * * * * * * * //

dimensions      [0 1 -1 0 0 0 0];

internalField   nonuniform List<vector> 
6852
(
(0.101338 -0.0779275 0.0580969)
(0.128212 -0.0748331 0.0577132)
(0.153792 -0.0711489 0.0571157)
(0.176651 -0.0660576 0.0563512)
(0.195265 -0.0593424 0.0550834)
(0.206 -0.049902 0.0530918)
(0.13419 -0.203884 0.0313905)
(0.172158 -0.20192 0.0322501)
(0.211087 -0.199116 0.0329627)
(0.249682 -0.193622 0.0341464)
(0.287463 -0.184473 0.035612)
(0.320042 -0.167705 0.0385941)
(0.13159 -0.251076 -0.0228518)
(0.169931 -0.251757 -0.0218507)
(0.210988 -0.251966 -0.0213492)
(0.25356 -0.249933 -0.0199567)
(0.299602 -0.244624 -0.0180939)
(0.34396 -0.230902 -0.0116649)
(0.121623 -0.173684 -0.0915928)
(0.157962 -0.17491 -0.0909482)
(0.198107 -0.176032 -0.0917356)
(0.240651 -0.176125 -0.0918289)
(0.291313 -0.174765 -0.0928581)
(0.34533 -0.168378 -0.0866425)
(0.122102 -0.0445284 -0.0833885)
(0.158063 -0.0455539 -0.0833318)
(0.197262 -0.0461742 -0.0846666)
(0.237908 -0.0464054 -0.0861168)
(0.285688 -0.0462143 -0.090615)
(0.335585 -0.045072 -0.092412)
(0.15224 0.0622908 -0.0931863)
(0.192194 0.0605523 -0.0937801)
(0.234775 0.0597002 -0.093984)
(0.285638 0.0598925 -0.0961569)
(0.338269 0.0622939 -0.0950597)
(0.149825 0.170645 -0.0835608)
(0.189771 0.167599 -0.0843616)
(0.232766 0.164781 -0.0846901)
(0.284578 0.162014 -0.0863678)
(0.338072 0.160698 -0.0842412)
(0.145242 0.273673 -0.0774664)
(0.184654 0.268276 -0.0785364)
(0.227366 0.262357 -0.0791205)
(0.27949 0.255477 -0.0808484)
(0.333404 0.249233 -0.0784191)
(0.138818 0.373781 -0.0712575)
(0.176959 0.366237 -0.0725852)
(0.218349 0.357305 -0.0735241)
(0.269578 0.346353 -0.0757371)
(0.322911 0.334707 -0.0737544)
(0.130845 0.467246 -0.0628278)
(0.167046 0.457628 -0.0643543)
(0.206203 0.445774 -0.0656575)
(0.255269 0.431019 -0.0685395)
(0.30683 0.414032 -0.0675717)
(0.121186 0.556078 -0.0523688)
(0.154834 0.545073 -0.0541618)
(0.191032 0.531189 -0.0559395)
(0.236877 0.514069 -0.0596636)
(0.286007 0.492868 -0.060018)
(0.111034 0.625981 -0.0311192)
(0.141973 0.613977 -0.0327981)
(0.175192 0.598566 -0.0345661)
(0.217074 0.579845 -0.0380416)
(0.262416 0.555337 -0.0386883)
(0.0997109 0.661942 -0.00855927)
(0.12757 0.648976 -0.0101872)
(0.157523 0.63223 -0.012062)
(0.194827 0.612135 -0.0152866)
(0.235438 0.585268 -0.016187)
(0.087136 0.666355 0.0105897)
(0.111743 0.652936 0.00908657)
(0.138337 0.635723 0.00726971)
(0.170913 0.615317 0.00445804)
(0.206345 0.587921 0.00343341)
(0.0736102 0.64689 0.0230544)
(0.0949473 0.633265 0.0217972)
(0.118154 0.616012 0.0202663)
(0.146151 0.596088 0.0180868)
(0.176526 0.56959 0.0172034)
(0.0598053 0.613177 0.0287973)
(0.078072 0.599788 0.0277083)
(0.0980528 0.583069 0.026398)
(0.121767 0.563743 0.0248502)
(0.14738 0.538584 0.0242173)
(0.0460776 0.572011 0.029796)
(0.0615848 0.559082 0.0288454)
(0.0786774 0.543177 0.027713)
(0.0986318 0.524847 0.0265329)
(0.119931 0.501448 0.0260257)
(0.0325558 0.52877 0.0278478)
(0.0456263 0.516351 0.0269948)
(0.0601764 0.501313 0.0259943)
(0.0769177 0.484039 0.0250443)
(0.094492 0.462443 0.0245986)
(0.0192033 0.486861 0.0243243)
(0.0301613 0.474881 0.0235646)
(0.0425069 0.460622 0.0226962)
(0.0565378 0.444324 0.0219267)
(0.0709779 0.424373 0.0215476)
(0.00584232 0.448241 0.0202053)
(0.0149768 0.436532 0.0195518)
(0.0254455 0.422858 0.0188331)
(0.0372251 0.407335 0.0182406)
(0.0490792 0.388741 0.0179708)
(-0.00788059 0.413941 0.0161786)
(-0.000270436 0.402202 0.0156231)
(0.00865135 0.388773 0.0150471)
(0.0185755 0.373762 0.0146311)
(0.0283527 0.356184 0.0144924)
(-0.0223048 0.384056 0.012652)
(-0.0159699 0.371995 0.0121958)
(-0.00836123 0.358574 0.0117376)
(0.000128522 0.343698 0.011454)
(0.00832466 0.326701 0.011417)
(-0.037913 0.358303 0.00978018)
(-0.0325773 0.345528 0.00943805)
(-0.025946 0.331691 0.00910327)
(-0.0185577 0.316691 0.0088912)
(-0.0115444 0.300051 0.00889691)
(-0.055198 0.33598 0.00761181)
(-0.0505594 0.322125 0.00733866)
(-0.0445717 0.307521 0.00712911)
(-0.0378978 0.29206 0.00699232)
(-0.0316199 0.275456 0.00695736)
(-0.0746288 0.31612 0.00616267)
(-0.0703622 0.300868 0.00587151)
(-0.0646337 0.285205 0.00568901)
(-0.0582325 0.269059 0.00560848)
(-0.0522124 0.252306 0.00551915)
(-0.0966117 0.297536 0.00539413)
(-0.0923286 0.280672 0.0049947)
(-0.0864373 0.263787 0.00472872)
(-0.0798224 0.246847 0.00456568)
(-0.0735259 0.229878 0.00437901)
(-0.121439 0.278892 0.00523697)
(-0.116655 0.260345 0.00462418)
(-0.110101 0.242239 0.00416829)
(-0.102746 0.224582 0.00381149)
(-0.0956155 0.207493 0.00342842)
(-0.149239 0.258702 0.00561359)
(-0.143344 0.238632 0.00465813)
(-0.135534 0.219524 0.00390014)
(-0.126848 0.201423 0.00326525)
(-0.118305 0.184489 0.00263997)
(-0.17978 0.235461 0.00639716)
(-0.172065 0.214318 0.00496376)
(-0.162341 0.194685 0.00380072)
(-0.151704 0.176626 0.00283595)
(-0.141182 0.160286 0.00197386)
(-0.212475 0.20761 0.0074716)
(-0.202108 0.18627 0.00540751)
(-0.189773 0.166918 0.00375442)
(-0.176585 0.149622 0.00245091)
(-0.163594 0.134481 0.00139965)
(-0.245792 0.17392 0.00851923)
(-0.232078 0.153661 0.00576356)
(-0.216581 0.135706 0.00361364)
(-0.200412 0.120111 0.002022)
(-0.184651 0.106912 0.000840187)
(-0.277746 0.133839 0.00937608)
(-0.260113 0.116353 0.00586818)
(-0.241126 0.101147 0.00323406)
(-0.221818 0.0883006 0.00138507)
(-0.203258 0.0778519 3.98312e-05)
(-0.304946 0.0871811 0.00919792)
(-0.283658 0.0745263 0.00512596)
(-0.26146 0.0636591 0.00210518)
(-0.239298 0.0547879 -7.07682e-06)
(-0.218185 0.0480587 -0.00165967)
(-0.323854 0.0385955 0.00777476)
(-0.299973 0.0319457 0.00322635)
(-0.27545 0.0263509 -0.000209813)
(-0.251192 0.02208 -0.00272964)
(-0.2282 0.0194859 -0.00483686)
(-0.335636 -0.0119005 0.00212815)
(-0.31025 -0.0110533 -0.00230593)
(-0.284364 -0.0102826 -0.00557673)
(-0.258762 -0.00881058 -0.00763813)
(-0.234105 -0.00568401 -0.00885888)
(-0.338878 -0.0515451 -0.00638276)
(-0.313866 -0.0441946 -0.00959499)
(-0.287631 -0.0374166 -0.0113085)
(-0.260635 -0.0315085 -0.0118447)
(-0.23364 -0.0260433 -0.0116752)
(-0.337403 -0.0779936 -0.0123932)
(-0.313496 -0.0659522 -0.0142515)
(-0.286331 -0.0572025 -0.0149821)
(-0.257276 -0.0501404 -0.0149361)
(-0.22759 -0.0433683 -0.0145583)
(-0.332115 -0.0889306 -0.0161292)
(-0.308938 -0.077902 -0.0181559)
(-0.281201 -0.0695063 -0.019318)
(-0.250712 -0.0624751 -0.019875)
(-0.218696 -0.0557544 -0.0200269)
(-0.320559 -0.0858455 -0.021243)
(-0.298871 -0.077502 -0.0243615)
(-0.271517 -0.0709394 -0.0265222)
(-0.240328 -0.0652627 -0.0279088)
(-0.206588 -0.059676 -0.0286718)
(-0.286885 -0.063945 -0.0271788)
(-0.269555 -0.0600871 -0.0306911)
(-0.24569 -0.0569135 -0.0334675)
(-0.217006 -0.0539803 -0.0356467)
(-0.184667 -0.0508852 -0.0372594)
(-0.175251 -0.0245716 -0.0214398)
(-0.170411 -0.025018 -0.0249332)
(-0.159837 -0.0250929 -0.0283011)
(-0.144237 -0.0247727 -0.0314926)
(-0.124138 -0.0240265 -0.0344847)
(0.132475 -0.080282 0.155322)
(0.16948 -0.0773817 0.154543)
(0.205864 -0.0736562 0.15335)
(0.239806 -0.0678853 0.151895)
(0.269215 -0.0596314 0.149743)
(0.149454 -0.183656 0.0738753)
(0.192811 -0.181842 0.0742991)
(0.237748 -0.178925 0.0745448)
(0.282638 -0.172588 0.0761931)
(0.327036 -0.161765 0.0790432)
(0.365933 -0.142095 0.0856706)
(0.135701 -0.219423 -0.0675286)
(0.176072 -0.219443 -0.0678719)
(0.219819 -0.218651 -0.0692439)
(0.264899 -0.214547 -0.0685806)
(0.314591 -0.20616 -0.0665468)
(0.362553 -0.187836 -0.0528562)
(0.109502 -0.141985 -0.237263)
(0.142703 -0.142503 -0.239057)
(0.180614 -0.142844 -0.243558)
(0.219318 -0.140833 -0.246974)
(0.268957 -0.1366 -0.252351)
(0.320165 -0.123453 -0.241696)
(0.109606 -0.0081022 -0.215693)
(0.142354 -0.00878173 -0.217962)
(0.179096 -0.00921111 -0.222666)
(0.215744 -0.00898177 -0.227743)
(0.261556 -0.00849932 -0.238534)
(0.30615 -0.00533318 -0.243358)
(0.106451 0.0847723 -0.221847)
(0.139568 0.0828836 -0.223621)
(0.177158 0.081023 -0.227375)
(0.216231 0.0799564 -0.230988)
(0.264971 0.0792591 -0.238424)
(0.312708 0.0811243 -0.239891)
(0.13772 0.185577 -0.214104)
(0.175406 0.181949 -0.217644)
(0.215249 0.17838 -0.220857)
(0.264964 0.174419 -0.226604)
(0.314146 0.172246 -0.225691)
(0.134026 0.281741 -0.208322)
(0.171261 0.275517 -0.211878)
(0.210901 0.268535 -0.215088)
(0.260806 0.260185 -0.220517)
(0.31061 0.252803 -0.218844)
(0.128561 0.380422 -0.202083)
(0.164603 0.37177 -0.205771)
(0.202897 0.361445 -0.209301)
(0.251765 0.348797 -0.215487)
(0.30099 0.335839 -0.21477)
(0.121636 0.476256 -0.191776)
(0.15588 0.465087 -0.195562)
(0.19192 0.451288 -0.199492)
(0.238502 0.434251 -0.206929)
(0.285841 0.415209 -0.208381)
(0.113022 0.577232 -0.17807)
(0.144906 0.564272 -0.18225)
(0.177963 0.547849 -0.186952)
(0.221333 0.527863 -0.196302)
(0.266492 0.503552 -0.200774)
(0.105369 0.667437 -0.133883)
(0.135185 0.652934 -0.137577)
(0.165975 0.634121 -0.141864)
(0.205928 0.611557 -0.150319)
(0.248439 0.582759 -0.154515)
(0.0974949 0.727151 -0.0859858)
(0.124975 0.71087 -0.0896028)
(0.153407 0.689532 -0.0941526)
(0.189603 0.663962 -0.102275)
(0.228976 0.631342 -0.106721)
(0.0894605 0.763439 -0.0436562)
(0.114764 0.745877 -0.0473708)
(0.141042 0.722956 -0.0522157)
(0.173577 0.695593 -0.059969)
(0.209402 0.661251 -0.0647982)
(0.0812427 0.782187 -0.0116559)
(0.104612 0.764068 -0.0156113)
(0.129061 0.740604 -0.0207504)
(0.158472 0.712478 -0.0279171)
(0.190909 0.677889 -0.0325749)
(0.0726989 0.788219 0.0105994)
(0.0943273 0.769994 0.00654223)
(0.117152 0.746605 0.00136824)
(0.143957 0.718782 -0.00508739)
(0.173378 0.685077 -0.00916571)
(0.0631963 0.784535 0.0243985)
(0.0832673 0.766765 0.0205333)
(0.104721 0.744288 0.0157794)
(0.129488 0.717574 0.0103657)
(0.156217 0.68517 0.00721474)
(0.0528294 0.774755 0.0318099)
(0.071341 0.757392 0.0283392)
(0.0913626 0.735766 0.0242338)
(0.114258 0.710264 0.0200169)
(0.13872 0.679522 0.0180641)
(0.0417046 0.761377 0.0347848)
(0.0587208 0.744329 0.0317897)
(0.0773245 0.723419 0.0284191)
(0.0984089 0.698879 0.02539)
(0.120674 0.669428 0.024592)
(0.0298138 0.746182 0.0348434)
(0.0454333 0.729246 0.0323802)
(0.0626826 0.70879 0.0297804)
(0.0820691 0.684869 0.0278215)
(0.102252 0.656281 0.0280378)
(0.0170169 0.730396 0.0331833)
(0.0313702 0.713265 0.0312933)
(0.047365 0.692891 0.0294636)
(0.0651876 0.669178 0.0284694)
(0.0834317 0.640972 0.0295418)
(0.00308161 0.714721 0.0307463)
(0.0163119 0.697005 0.0294295)
(0.031184 0.676308 0.0283532)
(0.0476114 0.652337 0.0282116)
(0.0641019 0.62406 0.0299386)
(-0.0123104 0.699494 0.0282674)
(-5.39109e-05 0.680761 0.027449)
(0.0138928 0.659206 0.0270447)
(0.0291132 0.634579 0.0276367)
(0.0441129 0.605812 0.0298361)
(-0.0294071 0.684413 0.0262863)
(-0.0179897 0.664374 0.0258447)
(-0.00486813 0.641705 0.0259434)
(0.00949865 0.615786 0.0270637)
(0.0232535 0.586248 0.0295563)
(-0.048613 0.669035 0.0251982)
(-0.0377828 0.647293 0.0249466)
(-0.025193 0.623146 0.0253401)
(-0.0115871 0.596043 0.0267042)
(0.00137157 0.565341 0.0292239)
(-0.0703229 0.652574 0.0252655)
(-0.0597585 0.628861 0.0249406)
(-0.0473829 0.602984 0.0253638)
(-0.0341324 0.574428 0.0266988)
(-0.0216579 0.542773 0.0289457)
(-0.0949181 0.634013 0.0266222)
(-0.0841858 0.608206 0.0258799)
(-0.0716164 0.58053 0.0260104)
(-0.0583022 0.550546 0.0270143)
(-0.0458563 0.518029 0.0287191)
(-0.122739 0.612098 0.0292899)
(-0.111264 0.584322 0.0276992)
(-0.0979808 0.555013 0.0271655)
(-0.0840966 0.523862 0.0275239)
(-0.0711793 0.490866 0.0284356)
(-0.153919 0.585493 0.0330966)
(-0.141004 0.556181 0.0301826)
(-0.126402 0.525697 0.0286012)
(-0.111377 0.493906 0.0280213)
(-0.097454 0.461055 0.0279394)
(-0.188452 0.552688 0.0377681)
(-0.173228 0.52275 0.0330058)
(-0.156615 0.491934 0.0300039)
(-0.139834 0.460347 0.0282455)
(-0.124368 0.42852 0.0270491)
(-0.225598 0.512543 0.0425313)
(-0.20727 0.483298 0.035576)
(-0.188014 0.45335 0.0309197)
(-0.168925 0.423101 0.0278687)
(-0.151448 0.393396 0.0255505)
(-0.26451 0.464156 0.0467232)
(-0.242237 0.437458 0.0373028)
(-0.219774 0.409943 0.030884)
(-0.197942 0.382416 0.0265514)
(-0.178122 0.356072 0.0232035)
(-0.302873 0.407683 0.0484908)
(-0.276539 0.385617 0.0370595)
(-0.25074 0.362268 0.0291835)
(-0.226056 0.338906 0.0238138)
(-0.20382 0.317074 0.0196468)
(-0.338606 0.345465 0.0469726)
(-0.308674 0.329449 0.0342497)
(-0.279856 0.311533 0.0253928)
(-0.252583 0.293432 0.0192708)
(-0.228015 0.276948 0.0144593)
(-0.371204 0.279856 0.0405063)
(-0.338298 0.270783 0.027464)
(-0.306775 0.259206 0.0183064)
(-0.276823 0.24691 0.0119753)
(-0.24938 0.235355 0.00709812)
(-0.399209 0.212737 0.0276844)
(-0.363584 0.210768 0.015521)
(-0.328929 0.204699 0.00706928)
(-0.295747 0.197443 0.0013619)
(-0.264922 0.191066 -0.00279774)
(-0.418384 0.144862 0.00938659)
(-0.380011 0.148234 -0.00105927)
(-0.342837 0.148443 -0.00786921)
(-0.307061 0.147916 -0.0120596)
(-0.273099 0.147981 -0.0148047)
(-0.424976 0.0804623 -0.0139119)
(-0.386736 0.0912766 -0.0208465)
(-0.348429 0.0982616 -0.0251053)
(-0.310518 0.103064 -0.0274645)
(-0.273425 0.107093 -0.0286801)
(-0.423533 0.0339213 -0.0382506)
(-0.385762 0.0465778 -0.0425069)
(-0.346166 0.0555546 -0.0448372)
(-0.305825 0.0624479 -0.0457987)
(-0.265393 0.0683582 -0.0458448)
(-0.406367 0.000545818 -0.0627074)
(-0.371528 0.0101241 -0.0655184)
(-0.332418 0.0175087 -0.0670616)
(-0.291086 0.02367 -0.0675622)
(-0.248434 0.0291755 -0.0672361)
(-0.311927 -0.0120328 -0.0720247)
(-0.290553 -0.00847315 -0.0782176)
(-0.263673 -0.00486041 -0.0828915)
(-0.231977 -0.00119092 -0.0863571)
(-0.19645 0.00248626 -0.0887156)
(0.140968 -0.0510978 0.225261)
(0.180064 -0.0476448 0.223335)
(0.217898 -0.0429282 0.220496)
(0.25223 -0.0354561 0.217007)
(0.280419 -0.0251692 0.212302)
(0.152888 -0.128057 0.0945681)
(0.197059 -0.124421 0.0943073)
(0.242526 -0.118794 0.0935672)
(0.287084 -0.108069 0.0947263)
(0.329019 -0.0913359 0.0981095)
(0.130874 -0.166417 -0.120523)
(0.169383 -0.164307 -0.121209)
(0.211101 -0.160676 -0.123196)
(0.252981 -0.151502 -0.122175)
(0.299493 -0.135986 -0.119331)
(0.341621 -0.105479 -0.098855)
(0.0876775 -0.110416 -0.385761)
(0.113966 -0.109585 -0.388886)
(0.145639 -0.108415 -0.395224)
(0.175062 -0.102704 -0.400327)
(0.220005 -0.0941003 -0.407806)
(0.260812 -0.0695014 -0.391385)
(0.0881411 0.0126172 -0.346802)
(0.114215 0.0127361 -0.350426)
(0.144925 0.0132099 -0.356907)
(0.17257 0.0148687 -0.364004)
(0.213211 0.0168605 -0.378655)
(0.245961 0.0237825 -0.384067)
(0.0864981 0.0856403 -0.347238)
(0.113429 0.0841282 -0.350222)
(0.145118 0.082593 -0.355589)
(0.176101 0.0819235 -0.361127)
(0.219335 0.0809917 -0.371819)
(0.256126 0.0835465 -0.374748)
(0.085237 0.177565 -0.336401)
(0.112269 0.174544 -0.339153)
(0.143906 0.170796 -0.344059)
(0.175829 0.166957 -0.348881)
(0.219296 0.162153 -0.357094)
(0.25736 0.159558 -0.35725)
(0.108945 0.255309 -0.332191)
(0.139988 0.248591 -0.336921)
(0.171536 0.240858 -0.34155)
(0.214674 0.231099 -0.349259)
(0.252978 0.222271 -0.348728)
(0.103531 0.342681 -0.32574)
(0.133207 0.333351 -0.330489)
(0.163025 0.322063 -0.335406)
(0.204634 0.307953 -0.344258)
(0.241702 0.293225 -0.3456)
(0.0964024 0.427593 -0.315288)
(0.124139 0.415481 -0.319998)
(0.151204 0.400368 -0.325264)
(0.190037 0.381563 -0.335911)
(0.224315 0.359689 -0.340507)
(0.086599 0.527822 -0.302737)
(0.111717 0.513883 -0.30796)
(0.134947 0.495833 -0.314252)
(0.170166 0.474213 -0.328166)
(0.201639 0.445886 -0.337638)
(0.078252 0.618768 -0.229305)
(0.101155 0.602956 -0.233387)
(0.121871 0.581622 -0.238373)
(0.1525 0.556773 -0.249875)
(0.180759 0.522609 -0.256217)
(0.0685909 0.663969 -0.152793)
(0.0882809 0.64558 -0.156643)
(0.105926 0.620428 -0.161945)
(0.131236 0.591017 -0.172952)
(0.156064 0.552133 -0.179015)
(0.0585706 0.685827 -0.0896465)
(0.0754186 0.665638 -0.0936332)
(0.0905529 0.638383 -0.099316)
(0.110944 0.606496 -0.109764)
(0.131855 0.566305 -0.116775)
(0.0486338 0.694234 -0.0448982)
(0.0632675 0.672808 -0.0492723)
(0.0766941 0.644375 -0.0555531)
(0.0935829 0.611237 -0.0655021)
(0.111314 0.571672 -0.0728965)
(0.0391973 0.697855 -0.0141944)
(0.0520957 0.675682 -0.019088)
(0.0642902 0.646751 -0.0260254)
(0.0788377 0.613138 -0.0356827)
(0.0942215 0.574901 -0.0429459)
(0.0307617 0.701123 0.00561481)
(0.0424934 0.678502 0.000281871)
(0.0536461 0.649038 -0.00710448)
(0.0662795 0.615062 -0.0162302)
(0.0799925 0.578381 -0.0227228)
(0.0221653 0.702883 0.0170125)
(0.0333141 0.680593 0.0116155)
(0.0443455 0.65214 0.00445345)
(0.0558365 0.61841 -0.00366658)
(0.0680268 0.583013 -0.00884197)
(0.0130109 0.70407 0.0223873)
(0.0236709 0.681938 0.0173055)
(0.0346292 0.654291 0.0108747)
(0.0460934 0.622166 0.00421884)
(0.0573939 0.588407 0.000929747)
(0.00307071 0.704879 0.0238723)
(0.0132642 0.68276 0.0193561)
(0.0240518 0.655741 0.0139727)
(0.0353854 0.624873 0.00906501)
(0.0462727 0.592899 0.00784347)
(-0.00792805 0.705516 0.0231761)
(0.00185201 0.68312 0.0193765)
(0.012408 0.656422 0.0151878)
(0.0234992 0.626536 0.0120874)
(0.0339701 0.595917 0.0128467)
(-0.0202106 0.70581 0.021569)
(-0.0108418 0.682981 0.0185867)
(-0.00052225 0.656286 0.0156486)
(0.0102944 0.62686 0.0142528)
(0.0203381 0.597159 0.0167335)
(-0.0341103 0.705685 0.0200887)
(-0.0250581 0.681987 0.0178727)
(-0.0149471 0.655022 0.0161343)
(-0.00442142 0.625833 0.0162601)
(0.00536295 0.5963 0.0201)
(-0.0499479 0.704882 0.0195058)
(-0.0410885 0.679902 0.0179429)
(-0.0310755 0.652226 0.0172145)
(-0.0206687 0.62282 0.0185588)
(-0.0110499 0.593397 0.0232853)
(-0.0680632 0.702992 0.020355)
(-0.0591945 0.676321 0.0192427)
(-0.0490779 0.647554 0.0192802)
(-0.0385695 0.617581 0.0214217)
(-0.0288142 0.587918 0.0265194)
(-0.0888093 0.699413 0.0230118)
(-0.079608 0.670699 0.0220058)
(-0.0690822 0.640545 0.0224418)
(-0.058138 0.609757 0.0249372)
(-0.047862 0.579677 0.0298466)
(-0.112513 0.693363 0.0276772)
(-0.102501 0.662361 0.0262871)
(-0.0911292 0.630654 0.0266238)
(-0.0793147 0.598961 0.0289398)
(-0.0680817 0.568442 0.0331337)
(-0.139484 0.683782 0.034387)
(-0.127978 0.650479 0.0319624)
(-0.115176 0.617266 0.0315929)
(-0.101957 0.584783 0.0331458)
(-0.089301 0.554008 0.0361192)
(-0.169806 0.669497 0.0428626)
(-0.155951 0.63417 0.0386631)
(-0.141037 0.59977 0.0369371)
(-0.125827 0.566859 0.0371646)
(-0.111293 0.53624 0.038495)
(-0.203569 0.648925 0.0526662)
(-0.186232 0.612422 0.0458471)
(-0.168416 0.577572 0.0421107)
(-0.150609 0.544911 0.0405286)
(-0.133784 0.515108 0.0399227)
(-0.239893 0.620838 0.062539)
(-0.218095 0.584466 0.0525449)
(-0.196721 0.550284 0.0463565)
(-0.175832 0.518845 0.0426785)
(-0.156425 0.490738 0.040031)
(-0.278331 0.583768 0.0714427)
(-0.250861 0.549665 0.057799)
(-0.225313 0.517756 0.0489069)
(-0.200985 0.488788 0.0430625)
(-0.178834 0.463411 0.0384721)
(-0.315762 0.537393 0.0765105)
(-0.282777 0.508086 0.0599434)
(-0.253108 0.480296 0.0487715)
(-0.225392 0.455146 0.0411008)
(-0.200555 0.433524 0.0349608)
(-0.350239 0.484003 0.0763261)
(-0.312544 0.46117 0.0579972)
(-0.279194 0.438899 0.0453763)
(-0.248438 0.418627 0.0365525)
(-0.221109 0.401507 0.0295671)
(-0.380927 0.425758 0.0699042)
(-0.339465 0.410499 0.0513651)
(-0.302983 0.394629 0.0385647)
(-0.269587 0.379808 0.0296077)
(-0.239903 0.367435 0.0226253)
(-0.406356 0.364416 0.0576423)
(-0.362438 0.357027 0.040673)
(-0.323586 0.347761 0.0288567)
(-0.288021 0.33858 0.0204812)
(-0.256034 0.331013 0.0139423)
(-0.425632 0.30107 0.0411222)
(-0.380591 0.301464 0.0264068)
(-0.339983 0.298571 0.0159431)
(-0.302416 0.294286 0.00839336)
(-0.268012 0.290205 0.00259022)
(-0.436337 0.237606 0.0186527)
(-0.392025 0.242459 0.00691277)
(-0.350593 0.243511 -0.00156391)
(-0.31136 0.243187 -0.00748671)
(-0.274435 0.242839 -0.0116928)
(-0.439802 0.170425 -0.00959059)
(-0.396665 0.178559 -0.0174893)
(-0.354722 0.183265 -0.0229559)
(-0.313736 0.186201 -0.026556)
(-0.273804 0.188454 -0.0288135)
(-0.431772 0.0992626 -0.0396571)
(-0.390964 0.107752 -0.0440995)
(-0.349025 0.11342 -0.0470094)
(-0.306453 0.117556 -0.0486632)
(-0.263577 0.12096 -0.049347)
(-0.361107 0.0286527 -0.0647776)
(-0.331621 0.0351053 -0.0690817)
(-0.297748 0.0402754 -0.0721037)
(-0.260618 0.0446755 -0.0740682)
(-0.220899 0.0486459 -0.0750416)
(0.140568 -0.00883888 0.244534)
(0.178254 -0.0058383 0.240271)
(0.213535 -0.0020968 0.23444)
(0.244333 0.00316326 0.225961)
(0.268239 0.00989057 0.214964)
(0.157728 -0.0256527 0.108782)
(0.20182 -0.0185863 0.108292)
(0.245814 -0.00870318 0.107808)
(0.287095 0.00647328 0.11181)
(0.323835 0.0250745 0.118965)
(0.132706 -0.086799 -0.146624)
(0.170251 -0.0820094 -0.146849)
(0.209684 -0.0750004 -0.147918)
(0.247767 -0.0596909 -0.144617)
(0.286879 -0.0358712 -0.136941)
(0.068042 -0.0765462 -0.500338)
(0.0877641 -0.0742197 -0.503207)
(0.112885 -0.0714235 -0.508831)
(0.132596 -0.0618197 -0.513059)
(0.172412 -0.0491344 -0.518649)
(0.200689 -0.0120786 -0.493545)
(0.0687644 0.0299646 -0.452841)
(0.0884508 0.0310866 -0.456478)
(0.113303 0.0327606 -0.462615)
(0.132138 0.0363456 -0.469648)
(0.168531 0.0408055 -0.484564)
(0.188419 0.0525778 -0.487188)
(0.0679819 0.0792257 -0.448984)
(0.0888049 0.0782534 -0.452008)
(0.114544 0.0773015 -0.457253)
(0.137346 0.0773124 -0.463137)
(0.175514 0.0765707 -0.474633)
(0.200889 0.0803668 -0.477747)
(0.067131 0.156676 -0.438103)
(0.0881522 0.154008 -0.440914)
(0.113689 0.150587 -0.445774)
(0.137552 0.147039 -0.450945)
(0.174952 0.142098 -0.459903)
(0.201452 0.139896 -0.461036)
(0.0647076 0.222195 -0.43156)
(0.085212 0.217343 -0.434171)
(0.110099 0.210852 -0.438805)
(0.133398 0.20329 -0.443755)
(0.170068 0.193167 -0.452415)
(0.196174 0.183797 -0.453612)
(0.0607683 0.298608 -0.427391)
(0.0799941 0.291964 -0.429803)
(0.103503 0.282972 -0.43435)
(0.124673 0.272044 -0.439562)
(0.15963 0.258042 -0.449852)
(0.183345 0.243165 -0.454081)
(0.0729286 0.364596 -0.423344)
(0.0946113 0.352826 -0.427599)
(0.112458 0.33803 -0.432892)
(0.144742 0.319297 -0.445244)
(0.164026 0.295947 -0.452943)
(0.0615269 0.464529 -0.422263)
(0.0804896 0.45121 -0.426978)
(0.0930179 0.433204 -0.433298)
(0.121914 0.41229 -0.450212)
(0.135828 0.380832 -0.463666)
(0.0520181 0.560547 -0.303486)
(0.0685854 0.545071 -0.305599)
(0.077839 0.522312 -0.308353)
(0.0991091 0.497111 -0.31898)
(0.107211 0.456979 -0.320343)
(0.0369821 0.570714 -0.188845)
(0.0480206 0.552435 -0.190972)
(0.051932 0.525077 -0.195325)
(0.0638154 0.495031 -0.207242)
(0.0669859 0.452751 -0.208413)
(0.0213606 0.561932 -0.101966)
(0.0279664 0.54214 -0.105064)
(0.0278976 0.513256 -0.110331)
(0.0308158 0.481553 -0.122165)
(0.0276728 0.442337 -0.126094)
(0.00649403 0.546977 -0.0514286)
(0.00947346 0.525935 -0.055532)
(0.0067928 0.496329 -0.0610482)
(0.00398086 0.464445 -0.0710706)
(-0.00380935 0.430151 -0.0752978)
(-0.00718778 0.53703 -0.0215426)
(-0.0071222 0.515132 -0.0261328)
(-0.0117946 0.485505 -0.0316424)
(-0.0182165 0.454088 -0.0400164)
(-0.0287935 0.42525 -0.0440216)
(-0.0209877 0.529159 -0.00357566)
(-0.0227584 0.507651 -0.00845803)
(-0.0277787 0.480351 -0.0139802)
(-0.036114 0.450608 -0.0210759)
(-0.0482843 0.427041 -0.0248396)
(-0.0346611 0.526895 0.00691296)
(-0.0378512 0.505318 0.00190984)
(-0.043388 0.479143 -0.00361903)
(-0.051335 0.452789 -0.00990322)
(-0.0638847 0.434022 -0.0130278)
(-0.04817 0.529494 0.0117725)
(-0.0521084 0.50816 0.00700913)
(-0.0577711 0.483237 0.00191155)
(-0.0656979 0.458827 -0.00329896)
(-0.0771301 0.444316 -0.00517668)
(-0.0618811 0.535538 0.0130968)
(-0.0660911 0.514358 0.00889964)
(-0.0714548 0.490556 0.00466756)
(-0.0787737 0.468323 0.000996791)
(-0.0887361 0.456805 0.00089802)
(-0.0762284 0.543641 0.012606)
(-0.08036 0.522399 0.00919801)
(-0.0851357 0.499511 0.00613376)
(-0.0914066 0.479252 0.00424274)
(-0.0994065 0.469928 0.00606865)
(-0.0916325 0.552745 0.011588)
(-0.0953862 0.531177 0.00911948)
(-0.0993119 0.508954 0.00734032)
(-0.104197 0.490331 0.00720324)
(-0.109866 0.482389 0.0107626)
(-0.108468 0.5621 0.0109697)
(-0.111542 0.539904 0.00950074)
(-0.114328 0.518063 0.00899599)
(-0.117499 0.500634 0.0103741)
(-0.120569 0.49332 0.0151929)
(-0.12706 0.571166 0.0114416)
(-0.129098 0.547997 0.0108826)
(-0.130405 0.526209 0.0114938)
(-0.131507 0.509477 0.014038)
(-0.131752 0.502139 0.0195325)
(-0.147687 0.579493 0.0135119)
(-0.148242 0.554976 0.0136082)
(-0.147648 0.532877 0.0150129)
(-0.146307 0.516339 0.0182473)
(-0.143524 0.508455 0.0238553)
(-0.170588 0.586588 0.0175473)
(-0.169085 0.560348 0.0178546)
(-0.166083 0.537578 0.0195707)
(-0.161891 0.520788 0.0229352)
(-0.155892 0.511999 0.0280849)
(-0.195927 0.591853 0.0237485)
(-0.191648 0.563549 0.0236275)
(-0.185653 0.539802 0.0250331)
(-0.178187 0.522437 0.0279082)
(-0.168802 0.512566 0.0320581)
(-0.22387 0.59437 0.0321743)
(-0.215892 0.56384 0.0307703)
(-0.206239 0.538975 0.0311284)
(-0.195072 0.520907 0.0328749)
(-0.182164 0.509986 0.0355368)
(-0.254283 0.593116 0.0425267)
(-0.241576 0.560416 0.0388702)
(-0.2276 0.534514 0.0374126)
(-0.212351 0.515857 0.0374413)
(-0.195838 0.504137 0.038227)
(-0.287284 0.586304 0.0544261)
(-0.268484 0.552174 0.0473727)
(-0.249471 0.525769 0.0433258)
(-0.229801 0.506972 0.0411434)
(-0.209664 0.494941 0.0398017)
(-0.321433 0.572646 0.0663728)
(-0.295661 0.538262 0.0551831)
(-0.271247 0.51227 0.0480599)
(-0.247048 0.49407 0.0434169)
(-0.223408 0.482403 0.0399076)
(-0.356799 0.549858 0.077467)
(-0.32265 0.51764 0.0613555)
(-0.292476 0.493625 0.0508563)
(-0.263763 0.477073 0.0437449)
(-0.236836 0.466574 0.0382512)
(-0.388335 0.517163 0.0838558)
(-0.347139 0.490045 0.0638943)
(-0.311998 0.469855 0.0506671)
(-0.279366 0.45609 0.0415952)
(-0.249604 0.447544 0.0346249)
(-0.414706 0.477447 0.0840857)
(-0.368256 0.456919 0.0618612)
(-0.329208 0.441698 0.0470148)
(-0.29347 0.431473 0.0368167)
(-0.261377 0.425393 0.0291141)
(-0.435828 0.432177 0.077497)
(-0.385802 0.41924 0.0549676)
(-0.34386 0.409667 0.0399244)
(-0.305781 0.403393 0.0296576)
(-0.271735 0.400008 0.0220964)
(-0.450679 0.382759 0.064436)
(-0.399116 0.377703 0.043817)
(-0.355447 0.37388 0.0301066)
(-0.31577 0.371571 0.020885)
(-0.280046 0.370806 0.0143379)
(-0.459467 0.329852 0.0474787)
(-0.408068 0.332461 0.0304892)
(-0.363623 0.333941 0.0192921)
(-0.322845 0.335142 0.0118673)
(-0.285507 0.336555 0.00678271)
(-0.459773 0.274518 0.0286583)
(-0.411475 0.282475 0.0169037)
(-0.367529 0.287664 0.00896989)
(-0.326049 0.291215 0.00362285)
(-0.286954 0.293902 -1.20244e-05)
(-0.456415 0.215033 0.0131441)
(-0.410524 0.224605 0.00541471)
(-0.366733 0.231155 0.000130821)
(-0.324187 0.235835 -0.00334995)
(-0.282903 0.239376 -0.00554957)
(-0.444455 0.139475 0.00167027)
(-0.401525 0.148368 -0.00298776)
(-0.358289 0.154765 -0.0061373)
(-0.314762 0.159586 -0.00810091)
(-0.271149 0.163426 -0.00916642)
(-0.378337 0.0524522 0.00107726)
(-0.345866 0.0596558 -0.00186495)
(-0.30986 0.0656 -0.00380988)
(-0.271076 0.0706957 -0.00499488)
(-0.229987 0.0752285 -0.00559312)
(0.133555 0.0290415 0.180721)
(0.167999 0.0303379 0.174105)
(0.199439 0.0318252 0.165681)
(0.225977 0.0338707 0.15523)
(0.246163 0.036172 0.14342)
(0.152539 0.0845669 0.0941442)
(0.193012 0.0888146 0.0900707)
(0.231447 0.0940132 0.0851256)
(0.265772 0.100497 0.0807138)
(0.296469 0.107311 0.0772229)
(0.137221 0.0172199 -0.0931636)
(0.174281 0.0229685 -0.0894889)
(0.211056 0.0306151 -0.085101)
(0.246925 0.0472835 -0.0734634)
(0.278885 0.0666637 -0.0698274)
(0.050512 -0.0405291 -0.569563)
(0.0645713 -0.0372266 -0.570472)
(0.0831667 -0.0335204 -0.573151)
(0.0938961 -0.022172 -0.573694)
(0.128338 -0.00943715 -0.573308)
(0.0513503 0.0480073 -0.528069)
(0.0654598 0.0496925 -0.531014)
(0.0846887 0.0519704 -0.535685)
(0.0957972 0.0567083 -0.541811)
(0.128057 0.0628588 -0.555217)
(0.135486 0.0794726 -0.554436)
(0.0511534 0.0696045 -0.524551)
(0.0663962 0.0691301 -0.527184)
(0.0862479 0.0687042 -0.531565)
(0.101356 0.069159 -0.537336)
(0.134061 0.0684747 -0.548635)
(0.147795 0.0725129 -0.551925)
(0.0506501 0.130234 -0.516664)
(0.0661124 0.128118 -0.519151)
(0.0856579 0.12531 -0.523329)
(0.101743 0.122345 -0.528522)
(0.132778 0.11768 -0.537847)
(0.146983 0.115922 -0.541432)
(0.048649 0.177473 -0.513017)
(0.0636305 0.173396 -0.515262)
(0.0825696 0.167837 -0.519173)
(0.0978532 0.161275 -0.524139)
(0.127913 0.1518 -0.533403)
(0.140087 0.142314 -0.538227)
(0.0451228 0.239774 -0.514996)
(0.0588691 0.234176 -0.516922)
(0.0765893 0.226522 -0.520495)
(0.0893818 0.217206 -0.525505)
(0.117861 0.204811 -0.536277)
(0.125103 0.191335 -0.544761)
(0.040357 0.302435 -0.517507)
(0.0523227 0.294962 -0.518857)
(0.0686054 0.284761 -0.52164)
(0.077498 0.271773 -0.526094)
(0.104091 0.254504 -0.538208)
(0.103212 0.230651 -0.548771)
(0.0399225 0.385973 -0.544866)
(0.0536004 0.375061 -0.547017)
(0.0555176 0.359208 -0.550968)
(0.0790664 0.341727 -0.565827)
(0.0661371 0.310166 -0.57915)
(0.0297753 0.486092 -0.328216)
(0.0411639 0.472386 -0.324283)
(0.0391267 0.449293 -0.318083)
(0.0481077 0.425329 -0.31645)
(0.01972 0.381767 -0.300817)
(-0.00219947 0.403081 -0.18618)
(-0.00310252 0.389194 -0.180141)
(-0.0161493 0.365911 -0.172744)
(-0.0230478 0.347529 -0.171303)
(-0.0561762 0.324657 -0.156459)
(-0.0353441 0.351264 -0.0861166)
(-0.0448798 0.338203 -0.0794347)
(-0.0654892 0.320291 -0.0733522)
(-0.0886412 0.310036 -0.073962)
(-0.13136 0.310626 -0.067989)
(-0.0677245 0.292801 -0.0262017)
(-0.0826702 0.281192 -0.0217694)
(-0.106549 0.273387 -0.0204445)
(-0.138651 0.282317 -0.0246997)
(-0.186799 0.308975 -0.0257257)
(-0.099705 0.264433 0.00841987)
(-0.119811 0.258342 0.00915036)
(-0.147198 0.262194 0.00573238)
(-0.182776 0.284792 -0.00157499)
(-0.226781 0.325262 -0.00708356)
(-0.127493 0.263085 0.021371)
(-0.152081 0.261086 0.0193958)
(-0.182233 0.272431 0.0141831)