/*--------------------------------*- C++ -*----------------------------------*\
| =========                 |                                                 |
| \\      /  F ield         | OpenFOAM: The Open Source CFD Toolbox           |
|  \\    /   O peration     | Version:  2.3.1                                 |
|   \\  /    A nd           | Web:      www.OpenFOAM.org                      |
|    \\/     M anipulation  |                                                 |
\*---------------------------------------------------------------------------*/
FoamFile
{
    version     2.0;
    format      ascii;
    class       volScalarField;
    location    "600";
    object      alphat;
}
// * * * * * * * * * * * * * * * * * * * * * * * * * * * * * * * * * * * * * //

dimensions      [0 2 -1 0 0 0 0];

internalField   nonuniform List<scalar> 
6852
(
0.00591293
0.00496188
0.00385524
0.00292817
0.00400023
0.0032004
0.00288486
0.00243624
0.00186923
0.00304182
0.00338046
0.00318166
0.00280916
0.00226839
0.00367808
0.00337047
0.00328158
0.00298432
0.00247638
0.00415476
0.00329266
0.00330264
0.00308804
0.00263983
0.00460236
0.00344697
0.00346311
0.00326224
0.00283514
0.00507605
0.00364919
0.0036574
0.00345573
0.00303844
0.00555353
0.00386042
0.00364986
0.00323648
0.0060139
0.00406244
0.00383588
0.0034216
0.00644032
0.00425281
0.0040045
0.0035861
0.00681588
0.00442059
0.00414669
0.00372256
0.0071243
0.00455199
0.00425228
0.00382347
0.00735081
0.00463477
0.00431338
0.00388328
0.00748497
0.00466024
0.00432584
0.00389929
0.0075227
0.00462571
0.0042899
0.00387188
0.00746672
0.00453476
0.00420981
0.00380399
0.00732595
0.00439592
0.00409257
0.00370034
0.007114
0.00422057
0.00394629
0.00356497
0.00685065
0.00402064
0.00377829
0.0034038
0.006551
0.00380658
0.0035895
0.00323023
0.00622519
0.00358348
0.00339128
0.00304693
0.0058845
0.00336227
0.00318711
0.0028568
0.00552883
0.00314495
0.00297844
0.00266201
0.00515759
0.00293077
0.0027665
0.00246384
0.00477167
0.00271861
0.00255222
0.00226304
0.00437283
0.00250741
0.00233642
0.00206102
0.00396326
0.00229679
0.00212098
0.00186272
0.00354491
0.00208788
0.00190886
0.00167116
0.00312062
0.00188531
0.0017075
0.00149014
0.00270528
0.00169878
0.00153063
0.00132776
0.00234255
0.00154559
0.00138973
0.00120062
0.00213374
0.00143585
0.00128761
0.00111069
0.00200776
0.00136081
0.00121696
0.00105542
0.0019632
0.00130217
0.00116348
0.00102879
0.00197207
0.00124231
0.00111372
0.00100785
0.00198302
0.00117335
0.0010639
0.000978127
0.00196539
0.00110702
0.00101433
0.000936345
0.00191521
0.00105163
0.000974377
0.000894381
0.00184043
0.00102681
0.000953683
0.000868861
0.00175706
0.00104213
0.000967814
0.000873722
0.00169264
0.00224842
0.00212185
0.00189868
0.00257212
0.00276149
0.00232554
0.0017897
0.00130876
0.00257842
0.00243259
0.00243252
0.00231475
0.00210252
0.00147164
0.00201843
0.00212994
0.0021748
0.00211761
0.0016731
0.00188068
0.00193773
0.00204984
0.00209627
0.00179692
0.00196691
0.00188181
0.00198065
0.00208748
0.00194234
0.00219688
0.00196091
0.00199707
0.00211596
0.00211612
0.00235902
0.00205761
0.00205532
0.00217309
0.00230693
0.00245444
0.00214263
0.00212931
0.00224714
0.00250346
0.00221406
0.00220794
0.00232928
0.00269738
0.00227506
0.00228641
0.00241352
0.00288161
0.00233015
0.00236277
0.00249586
0.00304959
0.00238574
0.0024361
0.00257337
0.00319512
0.00244515
0.00250454
0.00264355
0.00331279
0.00250674
0.00256517
0.00270434
0.00339884
0.00256528
0.0026148
0.00275441
0.00345149
0.00261478
0.00265107
0.00279349
0.00347081
0.00265089
0.00267316
0.00282246
0.00345837
0.00267177
0.00268194
0.00284329
0.00341681
0.0026779
0.00267965
0.00285872
0.00334879
0.00267146
0.00266968
0.00287177
0.00325651
0.0026557
0.00265587
0.00288576
0.00313892
0.00263438
0.00264251
0.00289692
0.0029952
0.00261144
0.0026339
0.00290522
0.00283264
0.00259093
0.00263727
0.00290785
0.00265741
0.00257782
0.00265598
0.00290483
0.00247526
0.00257869
0.00268989
0.00289643
0.00228981
0.00259881
0.00273792
0.00287862
0.00210062
0.00264268
0.00279832
0.00285161
0.00190659
0.00271302
0.00286419
0.00281464
0.00170651
0.00281003
0.00292493
0.0027655
0.00149972
0.00291919
0.00297467
0.00270013
0.00128752
0.00302556
0.00300577
0.00261616
0.00107782
0.00311772
0.00301554
0.00253847
0.000952469
0.00318648
0.00301551
0.00248434
0.000932203
0.00323644
0.00301841
0.00245931
0.000945495
0.00327002
0.00301689
0.00242246
0.000943063
0.00327676
0.00298229
0.00230306
0.000913603
0.00323862
0.00288581
0.00209342
0.000869567
0.00313371
0.00267517
0.00171175
0.000828309
0.00272667
0.00198708
0.00133348
0.000811
0.00114789
0.00106749
0.000946046
0.00173642
0.00276229
0.00233207
0.00180353
0.00129413
0.00259364
0.00223329
0.00227453
0.00221358
0.00208903
0.00146646
0.00192867
0.00200473
0.0020724
0.00208859
0.00161879
0.00191053
0.00189613
0.00195938
0.00203955
0.00172944
0.00192447
0.00189033
0.00190367
0.00199967
0.00186806
0.00199493
0.00195123
0.00189436
0.00197992
0.00203593
0.00213327
0.00203272
0.00190567
0.00197987
0.00222412
0.00230797
0.00210845
0.00192416
0.00199776
0.00242264
0.00246559
0.00215797
0.00194288
0.00203004
0.00262325
0.00217082
0.00195887
0.00207264
0.00281927
0.00214961
0.00197253
0.00212217
0.00300445
0.00210922
0.00198697
0.00217633
0.00317251
0.00206969
0.00200585
0.00223318
0.00331744
0.00204384
0.00203048
0.00229065
0.00343438
0.00203557
0.00205981
0.00234656
0.00352005
0.00204226
0.0020915
0.002399
0.00357286
0.00205874
0.0021231
0.0024467
0.00359268
0.00207987
0.0021528
0.00248925
0.00358059
0.00210172
0.00217969
0.00252713
0.00353829
0.00212192
0.0022039
0.0025594
0.00346678
0.00213948
0.00222617
0.00258262
0.00336703
0.00215439
0.00224777
0.00260028
0.00324504
0.00216745
0.00227188
0.00261289
0.0031059
0.00218045
0.00230075
0.00262054
0.00295353
0.00219674
0.00233341
0.00262515
0.00278926
0.00221874
0.00237009
0.00262822
0.00261357
0.00224892
0.0024112
0.00263055
0.00242814
0.00228953
0.00245744
0.00263265
0.00223385
0.00234249
0.00250969
0.00263466
0.00203112
0.00240939
0.0025688
0.0026366
0.00182012
0.00249121
0.00263576
0.00263817
0.00160056
0.0025885
0.00271095
0.00263602
0.00137194
0.002702
0.00279498
0.0026265
0.00113789
0.00283341
0.00288592
0.00261653
0.000920209
0.00298145
0.00298903
0.00264612
0.000890923
0.00313931
0.00310102
0.00269888
0.000919716
0.00328826
0.00319595
0.00271642
0.000917646
0.00339696
0.00322306
0.00263681
0.000885205
0.00343574
0.00313835
0.00228465
0.000846466
0.00319169
0.00266998
0.00168381
0.000831922
0.00121835
0.00112149
0.000990329
0.00179977
0.00269692
0.00226058
0.00174023
0.00123963
0.00250953
0.00222676
0.00222578
0.00212628
0.00199242
0.00142456
0.0020578
0.0021134
0.00212907
0.0020986
0.00157808
0.00203203
0.00206964
0.00209712
0.00210177
0.00171141
0.00201823
0.00206482
0.00207264
0.00207398
0.00187425
0.00201353
0.00208527
0.00205843
0.00203823
0.0020673
0.00203369
0.00212118
0.00204554
0.00200474
0.00228177
0.00207983
0.00216475
0.00202735
0.00198117
0.0025054
0.00214553
0.00220535
0.00200211
0.00196209
0.00272152
0.00222699
0.0022291
0.00197174
0.00196185
0.00292648
0.00222004
0.0019435
0.0019799
0.00311502
0.00217982
0.00192457
0.00201179
0.00328142
0.0021245
0.00191721
0.00205279
0.00342042
0.00207038
0.00192167
0.00209853
0.00352801
0.00202809
0.00193635
0.00214533
0.00360177
0.00200147
0.00195858
0.00219044
0.00364095
0.00198971
0.0019855
0.00223214
0.00364628
0.00198981
0.00201461
0.00226968
0.00361965
0.00199834
0.00204412
0.00230312
0.00356369
0.0020123
0.00207297
0.00233299
0.00348141
0.0020295
0.0021007
0.00235994
0.00337609
0.00204851
0.00212748
0.00238479
0.00325143
0.00206861
0.00215404
0.00240807
0.00311085
0.00208973
0.00218144
0.00243015
0.00295718
0.00211241
0.00221071
0.00245151
0.00279241
0.0021375
0.00224302
0.00247268
0.00261779
0.0021662
0.00227968
0.00249409
0.0024336
0.0022
0.00232204
0.00251602
0.00223877
0.00224068
0.0023714
0.00253825
0.00203463
0.00229022
0.00242865
0.00255986
0.00182258
0.00235062
0.00249415
0.00257911
0.00160456
0.00242362
0.00256732
0.00259304
0.0013828
0.00251041
0.0026468
0.00259913
0.00115891
0.00261179
0.00273132
0.00259797
0.000947765
0.00273006
0.00282872
0.00263081
0.000853291
0.00286879
0.00294565
0.00269833
0.000895414
0.00302458
0.0030692
0.00275535
0.000907383
0.00317613
0.0031503
0.00271465
0.000885416
0.00329498
0.00312849
0.00241486
0.000853643
0.00317844
0.00275924
0.00183502
0.000838141
0.00123388
0.0011395
0.00100519
0.00181517
0.00246491
0.00201711
0.00150118
0.00111681
0.00228819
0.00236079
0.00223264
0.00201658
0.00184256
0.00131233
0.00232489
0.00227448
0.00216365
0.00205039
0.00149269
0.00230669
0.00228067
0.00221074
0.00212224
0.001669
0.002283
0.00227092
0.00221541
0.00210563
0.00186924
0.00226766
0.00224978
0.0021892
0.00202921
0.00208278
0.00224943
0.00221453
0.00213651
0.00195308
0.00230465
0.00220963
0.00216678
0.00206766
0.00191077
0.00252725
0.00215487
0.00211187
0.00200149
0.00190808
0.0027409
0.00209491
0.00205866
0.00195336
0.00193892
0.00293862
0.00204073
0.00201536
0.00192953
0.00199265
0.00311432
0.00198696
0.00192891
0.00205947
0.00326254
0.00197409
0.00194658
0.00213153
0.00337889
0.0019748
0.00197687
0.00220311
0.00346057
0.00198582
0.00201465
0.0022704
0.0035066
0.00200378
0.00205596
0.00233126
0.0035176
0.00202583
0.00209803
0.00238483
0.00349555
0.00204984
0.00213916
0.00243127
0.00344335
0.00207435
0.00217849
0.00247131
0.00336443
0.00209853
0.00221584
0.00250606
0.00326231
0.00212215
0.0022515
0.00253672
0.00314043
0.00214545
0.00228613
0.00256438
0.00300196
0.00216916
0.00232068
0.00258986
0.00284968
0.00219437
0.00235626
0.00261368
0.00268585
0.00222247
0.00239403
0.00263605
0.00251215
0.00225504
0.00243509
0.00265677
0.00232973
0.00229377
0.00248038
0.00267537
0.00213901
0.00234029
0.00253052
0.00269077
0.00194239
0.00239601
0.00258549
0.0027011
0.00173932
0.00246171
0.00264426
0.00270331
0.00153037
0.00253718
0.00270442
0.00269392
0.00132
0.00262056
0.00276175
0.00266783
0.00111439
0.00270809
0.00281136
0.00262587
0.000911524
0.00279542
0.00285366
0.00259632
0.000871147
0.00288016
0.0028946
0.00259262
0.000896699
0.00296083
0.00293775
0.00260439
0.000915832
0.00303168
0.00297179
0.00259409
0.000908989
0.00307727
0.00295351
0.00241751
0.000880923
0.0030824
0.00283493
0.00196383
0.000841814
0.00284018
0.00238911
0.00155449
0.000829725
0.00118078
0.00110025
0.000980887
0.00178445
0.00447223
0.00353026
0.00269461
0.00217491
0.00322114
0.00217009
0.00179346
0.00142323
0.00120667
0.00244944
0.0022911
0.00188998
0.00156749
0.00138583
0.00290986
0.00241036
0.0020178
0.00172097
0.00156407
0.00338489
0.00255114
0.00216664
0.00188596
0.00175269
0.00388228
0.00270012
0.00232751
0.00206196
0.00195218
0.00438311
0.00285425
0.00249764
0.00224581
0.00215564
0.00487203
0.00301394
0.00267254
0.00243111
0.00235484
0.00533513
0.00317674
0.00284629
0.00261069
0.00254254
0.00575915
0.00333594
0.00301134
0.00277752
0.00271283
0.00613282
0.00348131
0.0031595
0.00292547
0.00286097
0.0064465
0.00359914
0.00328274
0.00304961
0.0029833
0.00669226
0.00337581
0.003147
0.00307759
0.00686507
0.00343908
0.00321786
0.00314368
0.00696381
0.00347596
0.00326442
0.00318302
0.0069909
0.00349112
0.00328982
0.00319799
0.00695135
0.00348928
0.00329735
0.00319133
0.00685187
0.00347423
0.00328975
0.00316567
0.00669992
0.00344853
0.00326901
0.00312323
0.00650287
0.00341349
0.00323625
0.00306568
0.00626743
0.00336938
0.00319183
0.00299411
0.00599926
0.00331571
0.00313544
0.0029091
0.00570296
0.00325148
0.00306635
0.00281077
0.00538194
0.00317543
0.00298353
0.00269887
0.00503844
0.00308625
0.00288584
0.00257294
0.00467356
0.00298265
0.00277218
0.00243247
0.00428751
0.00286357
0.0026416
0.00227709
0.00388196
0.00272823
0.00249349
0.00210649
0.00345393
0.00257631
0.00232775
0.00192067
0.00299843
0.00240814
0.00214523
0.00172097
0.0025185
0.0022252
0.00194891
0.00151457
0.00212264
0.00203074
0.00174481
0.00131507
0.00193061
0.0018303
0.00154149
0.00113342
0.00182479
0.00163232
0.00135108
0.000982319
0.00180319
0.00144815
0.0011926
0.000908829
0.00182734
0.00128524
0.00106909
0.000907532
0.00184937
0.00113889
0.000946909
0.000895269
0.00183786
0.0010153
0.00089464
0.000866737
0.00179604
0.000954877
0.000923302
0.000863372
0.00174844
0.00104157
0.000986681
0.00089631
0.00172264
0.00230258
0.00219773
0.00197529
0.00265305
0.000550911
0.000483755
0.000408926
0.000339777
0.000473711
0.00032688
0.000292925
0.000250495
0.000204735
0.000379851
0.0003992
0.000367401
0.000322097
0.000267256
0.000486108
0.000455884
0.000429422
0.000385375
0.000325418
0.000589063
0.000500209
0.000480343
0.000439893
0.000377571
0.000681098
0.000541828
0.000525571
0.000487994
0.000423989
0.000760436
0.000581366
0.000569586
0.000533358
0.00046725
0.000834276
0.000619428
0.000613233
0.000581739
0.000517359
0.000927308
0.00066198
0.000659319
0.000629619
0.000565358
0.00102927
0.000700786
0.000701123
0.000674882
0.000613502
0.00113851
0.000741592
0.000743967
0.000721307
0.000663258
0.00125327
0.00078071
0.000785739
0.000767767
0.000713468
0.00136964
0.000818513
0.000827095
0.000814522
0.000763645
0.00148464
0.000855606
0.00086839
0.000860648
0.000812805
0.00159522
0.000892189
0.000909636
0.000905666
0.000860026
0.00169869
0.000950649
0.000949007
0.000904422
0.00179288
0.000991152
0.000990082
0.000945212
0.00187624
0.00103013
0.00102816
0.000981745
0.00194795
0.00106558
0.00106238
0.00101354
0.00200779
0.00109787
0.0010925
0.00104045
0.00205616
0.00112702
0.00111851
0.00106252
0.00209372
0.00115286
0.00114036
0.00107988
0.00212115
0.00117506
0.00115793
0.00109258
0.00213889
0.00119297
0.00117091
0.00110053
0.00214701
0.00120604
0.00117891
0.00110353
0.00214529
0.00121357
0.00118141
0.00110129
0.00213332
0.00121468
0.00117783
0.00109347
0.00211069
0.00120848
0.00116761
0.00107983
0.00207735
0.00119422
0.00115042
0.0010604
0.00203382
0.00117155
0.00112636
0.0010356
0.00198153
0.00114085
0.00109614
0.00100635
0.0019228
0.00110355
0.00106121
0.000974118
0.00186058
0.001063
0.00102384
0.000940686
0.00179788
0.00102305
0.000987186
0.000907936
0.00173662
0.000993832
0.000955185
0.000877179
0.00167604
0.000981612
0.000930089
0.000847906
0.00161077
0.000980419
0.000907848
0.000815494
0.00152876
0.000968236
0.000874008
0.000768838
0.0014107
0.000918361
0.00080974
0.000695542
0.00124755
0.000806727
0.000693236
0.000586802
0.00106966
0.00139985
0.00121829
0.00109242
0.00155335
0.000265239
0.000227579
0.000185884
0.000150891
0.000279971
0.000512748
0.000443485
0.00036192
0.000273878
0.000156733
0.000643259
0.000568161
0.000467057
0.000359027
0.000202938
0.000914183
0.000807962
0.00064824
0.000485983
0.000254216
0.00127243
0.00117836
0.000929737
0.000668171
0.000304665
0.00164648
0.00155117
0.0012865
0.000911269
0.000353831
0.00197651
0.001884
0.00162043
0.00114612
0.000406117
0.00222324
0.002121
0.00183376
0.00130366
0.000454884
0.00239019
0.00228591
0.00198117
0.00140317
0.000503944
0.00250445
0.00239374
0.00207359
0.00145439
0.000553026
0.00257232
0.00244822
0.0021148
0.00146502
0.000601861
0.00260891
0.00245705
0.00210961
0.0014423
0.000649872
0.00260927
0.00242607
0.00205567
0.00139538
0.000696637
0.00257491
0.00236089
0.0019379
0.00133103
0.000741571
0.00251231
0.00227116
0.00180285
0.00126279
0.000784021
0.00242983
0.00216647
0.00166822
0.00119926
0.000823322
0.00205543
0.00154415
0.00114472
0.000858899
0.00193324
0.00143479
0.00110031
0.000890359
0.00178805
0.00133952
0.00106518
0.000917549
0.00165604
0.00126062
0.0010381
0.000940547
0.0015499
0.00119828
0.00101781
0.000959576
0.00146751
0.00115055
0.00100303
0.000974885
0.00140505
0.00111487
0.000992562
0.000986655
0.00135747
0.00108852
0.00098529
0.000994926
0.00132196
0.00106918
0.000980195
0.000999579
0.00129614
0.00105493
0.000976361
0.00100036
0.00127807
0.00104419
0.000972969
0.000996957
0.00126681
0.00103582
0.000969309
0.000989091
0.0012626
0.00102923
0.000964871
0.000976678
0.00126823
0.0010247
0.000959452
0.000959972
0.00129056
0.00102373
0.000953317
0.000939661
0.00134517
0.00103012
0.000947461
0.000916863
0.00147012
0.00105316
0.000944253
0.000892948
0.00166349
0.00110433
0.000947311
0.000869139
0.00186572
0.00120015
0.000960622
0.000845792
0.00201203
0.0013463
0.000985567
0.000821131
0.00207296
0.00148286
0.00101279
0.000789845
0.00205566
0.00153409
0.00102743
0.000742272
0.00196277
0.00149388
0.00103143
0.000670535
0.00172593
0.00138957
0.000995336
0.000582552
0.000785364
0.000696548
0.000596555
0.00114589
0.000300631
0.000249246
0.000193067
0.00014846
0.000267184
0.000602576
0.000539633
0.000459021
0.000355611
0.000145953
0.000704379
0.000672838
0.000581729
0.00043891
0.000170419
0.00111517
0.00105109
0.000871109
0.000619538
0.000220095
0.0016263
0.00158369
0.00133196
0.000926263
0.000284005
0.00212978
0.00206777
0.00179954
0.00126508
0.000348315
0.00252463
0.00247032
0.00218053
0.00155919
0.000410161
0.00281415
0.002777
0.00247618
0.00178199
0.000468005
0.00301632
0.00299645
0.00269373
0.00193616
0.000523433
0.00315316
0.00314196
0.00284083
0.00202765
0.000576549
0.00323865
0.00322539
0.00292625
0.00206388
0.000627501
0.00329557
0.00326018
0.00295861
0.00205143
0.000676191
0.00331844
0.00325584
0.00294722
0.00200056
0.000722655
0.00331116
0.0032215
0.00289769
0.00192084
0.000766784
0.00328139
0.00316557
0.00280183
0.00182237
0.000808309
0.00323838
0.0030965
0.00267604
0.00171654
0.000846884
0.00319076
0.00302134
0.00253535
0.00161294
0.000882151
0.00294476
0.00239013
0.00151777
0.000913836
0.00286558
0.00224749
0.00143403
0.000941823
0.00277918
0.00211261
0.00136246
0.000966164
0.00268167
0.00198875
0.00130245
0.000987032
0.00258528
0.00187861
0.00125269
0.00100465
0.00249806
0.00178326
0.00121166
0.00101916
0.00242109
0.00170196
0.00117781
0.0010306
0.00235444
0.00163323
0.00114975
0.00103879
0.00229862
0.00157562
0.00112631
0.00104343
0.0022548
0.00152822
0.00110659
0.0010441
0.00222548
0.00149098
0.00108994
0.00104043
0.00221432
0.00146598
0.0010762
0.00103222
0.00224167
0.00145817
0.00106584
0.00101971
0.00231974
0.00147376
0.00106003
0.00100361
0.00241785
0.00151778
0.00106103
0.000985175
0.00247959
0.00161441
0.0010746
0.000966192
0.0025109
0.00176225
0.00110659
0.000948682
0.00252567
0.00190459
0.00115177
0.000933485
0.00251773
0.00201151
0.00121125
0.000919033
0.00247151
0.00205001
0.00128334
0.00089945
0.00238669
0.00201537
0.00133865
0.000861924
0.00227864
0.0019181
0.00134175
0.000794451
0.00206309
0.00175433
0.00129742
0.000698811
0.000894082
0.000808255
0.000695513
0.00138276
0.000359608
0.000296004
0.000229202
0.000162816
0.000309734
0.000639126
0.000583422
0.000515563
0.000425245
0.000193656
0.000658327
0.000680688
0.000642899
0.000527887
0.000197404
0.00111908
0.0011169
0.000993407
0.000744377
0.000221185
0.00181468
0.00173784
0.00150192
0.00107891
0.000277111
0.0024108
0.00231156
0.00200314
0.00143265
0.000346952
0.00284309
0.00276259
0.00242256
0.00173803
0.000416579
0.00313621
0.00308468
0.00274331
0.00197218
0.000482072
0.00332211
0.00329638
0.00296988
0.00213438
0.000543805
0.00343103
0.00341942
0.0031138
0.00222988
0.000602127
0.00347985
0.00347187
0.00318881
0.00226707
0.000657462
0.0034918
0.00347121
0.00320762
0.00225334
0.000709881
0.00346927
0.00343333
0.00318514
0.00220038
0.000759527
0.00342174
0.00337246
0.00313413
0.00211936
0.000806394
0.00336104
0.003301
0.00306452
0.00202117
0.000850291
0.00329943
0.00322873
0.00298108
0.00191551
0.000890924
0.00324584
0.0031622
0.00288699
0.00181001
0.000928003
0.00320584
0.0031049
0.00278743
0.00171014
0.000961336
0.00305823
0.00268702
0.00161925
0.000990857
0.00301958
0.00258865
0.00153876
0.00101665
0.00298736
0.0024944
0.00146866
0.00103889
0.00295947
0.0024057
0.00140812
0.00105778
0.00293314
0.00232342
0.00135597
0.00107341
0.00290906
0.00224822
0.00131094
0.00108576
0.00288848
0.00218081
0.001272
0.00109459
0.00287395
0.00212248
0.00123847
0.00109955
0.00286574
0.00207476
0.00120999
0.0011002
0.00286285
0.00204055
0.00118679
0.00109613
0.00285056
0.00203591
0.00117064
0.00108727
0.00282666
0.00206214
0.00116393
0.00107409
0.00280303
0.00211872
0.00117038
0.00105784
0.00278803
0.00218136
0.00119312
0.00104083
0.00278328
0.00225718
0.00124097
0.0010261
0.00277887
0.00233057
0.00132879
0.0010172
0.00275996
0.0023894
0.00145399
0.00101674
0.00271195
0.00240838
0.00159605
0.00102244
0.00263061
0.00237091
0.00170631
0.00102091
0.00252885
0.002274
0.00169918
0.000994593
0.00239698
0.00211381
0.0015884
0.000933736
0.00215314
0.00187825
0.00144212
0.000837492
0.00100529
0.000919552
0.00081629
0.00166137
0.000420761
0.000351392
0.000278202
0.000202394
0.000399801
0.000657639
0.00060961
0.000555137
0.0004868
0.0002472
0.000658406
0.000685119
0.000671795
0.000591479
0.000256211
0.00121013
0.00119472
0.00107561
0.000839315
0.000279021
0.00207551
0.00194382
0.00165209
0.0011983
0.000323119
0.0027327
0.00258696
0.00220169
0.00156098
0.000382916
0.00316099
0.00304697
0.00263757
0.00186332
0.000447978
0.00341887
0.00334158
0.00294739
0.00208626
0.000512479
0.00355627
0.00350698
0.00314566
0.00223267
0.000574884
0.00361085
0.003575
0.00325182
0.00231018
0.00063473
0.00360126
0.00356929
0.00328532
0.00232906
0.000692128
0.00354962
0.00351058
0.00326247
0.00229748
0.000746959
0.00346933
0.00341995
0.00320149
0.00222845
0.000799197
0.00337218
0.00331519
0.00311785
0.00213351
0.000848704
0.00327322
0.00321078
0.00302596
0.00202437
0.000895146
0.00318689
0.00311767
0.00293596
0.00191151
0.000938089
0.00312252
0.00304263
0.00285532
0.00180297
0.000977106
0.00308319
0.00298794
0.0027866
0.00170373
0.00101192
0.00306816
0.00295252
0.00272221
0.00161563
0.00104248
0.002934
0.00266205
0.0015389
0.00106892
0.00292826
0.00260808
0.0014729
0.00109142
0.00293184
0.00256125
0.0014165
0.00111012
0.00294027
0.00252232
0.00136852
0.00112508
0.00294991
0.00249182
0.00132794
0.00113619
0.00295785
0.00247043
0.00129407
0.00114316
0.00296303
0.00245937
0.00126674
0.00114561
0.00296567
0.00245891
0.0012475
0.00114315
0.00296594
0.00246527
0.0012434
0.00113562
0.00296369
0.00247188
0.0012568
0.00112356
0.00295916
0.00248079
0.00129286
0.00110852
0.00295337
0.00251323
0.00135944
0.0010932
0.00294241
0.00255632
0.0014643
0.00108152
0.00292294
0.00260275
0.00161753
0.00107892
0.00289073
0.0026379
0.00181787
0.0010914
0.00284051
0.00264519
0.00203097
0.00111432
0.00277036
0.0026143
0.00216838
0.00113323
0.00268669
0.00254428
0.00217559
0.00113884
0.00261416
0.00244811
0.0020785
0.00111864
0.00252312
0.00228654
0.00183996
0.00106332
0.002223
0.00195783
0.00154137
0.000972759
0.00112265
0.00103565
0.000945947
0.00194646
0.000470507
0.000401676
0.00032719
0.000247512
0.000491175
0.000674621
0.000634249
0.000591954
0.00054484
0.000291914
0.000725627
0.000747428
0.000734318
0.000669325
0.000308544
0.00150289
0.00142087
0.00124105
0.000969643
0.000343303
0.00245789
0.00227665
0.00189776
0.00136086
0.000393311
0.00310132
0.00292907
0.00247337
0.00172475
0.000450528
0.00347265
0.00334479
0.0028888
0.0020072
0.000509688
0.0036615
0.00357269
0.00315286
0.00220223
0.000568546
0.00373117
0.00366607
0.00329473
0.00231878
0.00062654
0.00372202
0.00366411
0.00334248
0.00236782
0.000683161
0.00365429
0.00359277
0.00332021
0.00236182
0.000738364
0.00355377
0.00347409
0.00324553
0.00231002
0.000791858
0.0034289
0.00333308
0.00313441
0.00222613
0.000843476
0.00329337
0.00318946
0.00300305
0.00211276
0.00089272
0.00316845
0.00305952
0.00287131
0.00197959
0.000938725
0.00307122
0.00295378
0.00275203
0.00184676
0.000981038
0.00300983
0.00287728
0.0026531
0.001726
0.00101934
0.00298379
0.00283058
0.00257824
0.00162229
0.00105342
0.00298825
0.00281175
0.00253087
0.00153661
0.0010832
0.00301703
0.00281683
0.00250775
0.00146769
0.00110868
0.00284082
0.00250378
0.0014135
0.00112988
0.00287746
0.00251366
0.00137217
0.00114681
0.00292137
0.00253214
0.00134272
0.00115939
0.00296691
0.0025542
0.00132551
0.00116754
0.00300849
0.00257623
0.00132248
0.00117115
0.00304273
0.00259841
0.00133763
0.00117025
0.00306738
0.00262477
0.00137277
0.00116474
0.00308072
0.00266002
0.00142941
0.0011548
0.00307923
0.00269897
0.00151631
0.00114255
0.0030622
0.00273476
0.00164212
0.00113136
0.00303381
0.00276668
0.00181617
0.0011263
0.00299473
0.00278698
0.00202647
0.00113398
0.00294553
0.0027878
0.00224453
0.00115371
0.00288721
0.00276108
0.00238017
0.00117533
0.00282231
0.00270926
0.00240131
0.0011953
0.0027558
0.00264744
0.00236499
0.00120755
0.00269465
0.00258427
0.00230154
0.0012096
0.00266726
0.00253065
0.00221193
0.00119462
0.00267051
0.00245498
0.00204521
0.00115393
0.00235021
0.00207787
0.00165464
0.00108148
0.00124481
0.00115316
0.00106988
0.00220185
0.000505091
0.000441445
0.000370201
0.000290434
0.000576413
0.00069907
0.000667451
0.000635658
0.000604438
0.00033105
0.000881358
0.000900966
0.000868574
0.000786149
0.000357251
0.00196096
0.00180114
0.00152725
0.00116642
0.000403723
0.00290758
0.00269727
0.00224188
0.00158606
0.000461136
0.00346753
0.00329173
0.00279519
0.00193277
0.000520635
0.00374036
0.00361585
0.00314941
0.00217778
0.000578913
0.00384255
0.00375145
0.00333943
0.00233147
0.000635497
0.00384265
0.00376304
0.00340899
0.00240987
0.000690492
0.00378306
0.00369098
0.0033928
0.00242746
0.000743844
0.003679
0.00355955
0.00331394
0.00239819
0.000795787
0.00354634
0.00339498
0.00317904
0.00233692
0.000846046
0.0033901
0.00322247
0.0030179
0.00222038
0.000894088
0.00323077
0.00306146
0.00285428
0.00207832
0.000939103
0.00309806
0.0029286
0.00270707
0.00193549
0.000980614
0.00300872
0.00283287
0.00258697
0.00180305
0.00101845
0.0029663
0.00277658
0.00249916
0.0016882
0.00105255
0.0029641
0.00275702
0.00244459
0.00159388
0.00108281
0.00299251
0.00276899
0.00242161
0.00152047
0.00110918
0.00304156
0.00280612
0.0024269
0.00146761
0.00113161
0.00310145
0.0028611
0.00245631
0.00143434
0.00115
0.00292638
0.00250497
0.00142035
0.00116424
0.0029939
0.00256743
0.00142678
0.00117419
0.00305588
0.0026374
0.00145664
0.00117985
0.00310412
0.00270835
0.00151498
0.00118143
0.0031343
0.00277421
0.00160846
0.00117941
0.00314508
0.00283025
0.00173036
0.00117403
0.0031374
0.00287418
0.00188618
0.00116783
0.00311
0.00289951
0.00207655
0.00116512
0.00306639
0.00290227
0.0022742
0.0011705
0.00301428
0.00288567
0.0024502
0.0011824
0.002955
0.00284035
0.00251453
0.0011952
0.00289442
0.00277886
0.00249007
0.00120632
0.00284058
0.00272295
0.00244098
0.00121254
0.0027954
0.00268144
0.00240055
0.00121656
0.00275576
0.00265142
0.00237707
0.00122468
0.00272255
0.00262632
0.00235708
0.0012494
0.00272692
0.00261792
0.00232269
0.00125665
0.00282015
0.00264205
0.00223725
0.00122114
0.00262732
0.00235269
0.00185371
0.00116421
0.00137933
0.00127987
0.0011883
0.00241719
0.000526558
0.000471728
0.000407995
0.000332686
0.000663888
0.000746234
0.000726718
0.000702381
0.000676992
0.000369152
0.00117956
0.00119278
0.00111017
0.000961573
0.000407428
0.00248998
0.00229051
0.00191462
0.00142036
0.000462797
0.00335635
0.0031419
0.00263638
0.0018464
0.000524257
0.00378292
0.00362086
0.00311822
0.00215757
0.000584881
0.00393884
0.00382482
0.00337934
0.00235695
0.000643184
0.00395784
0.00386183
0.00348077
0.00246548
0.000699215
0.0039107
0.00379653
0.00347737
0.00250766
0.000753369
0.00382443
0.00366513
0.00340095
0.00249847
0.000805493
0.00370375
0.00349568
0.00326044
0.0024583
0.000855515
0.00355294
0.0033078
0.00308211
0.00236829
0.000902599
0.00337733
0.00312599
0.00289802
0.0022299
0.00094605
0.00320879
0.00296966
0.00273052
0.00208198
0.000985238
0.00308451
0.00285475
0.00259669
0.00194909
0.00102013
0.00301495
0.0027864
0.00250406
0.00184078
0.00105104
0.00299553
0.00276179
0.002454
0.00175787
0.00107839
0.00301253
0.00277375
0.002443
0.00169861
0.00110259
0.00305306
0.00281372
0.00246541
0.00166146
0.00112389
0.00310584
0.00287198
0.00251373
0.00164889
0.00114235
0.00316027
0.0029389
0.00258044
0.00166066
0.00115775
0.0032083
0.00300557
0.00265804
0.0016987
0.00116982
0.00306495
0.00273966
0.00176725
0.00117848
0.00311013
0.00281764
0.00187158
0.00118404
0.00313493
0.00288436
0.00201495
0.00118731
0.00313883
0.00293308
0.00218761
0.00118961
0.00312528
0.00296026
0.00236279
0.00119289
0.00309726
0.00296394
0.00251937
0.00119802
0.00305392
0.00293244
0.00259909
0.00120416
0.00300107
0.00287146
0.00257755
0.00120861
0.00295071
0.00280965
0.00251879
0.00120903
0.0029076
0.00276025
0.00245999
0.00120395
0.00287324
0.00272868
0.00242172
0.00119708
0.00284682
0.00271467
0.00241451
0.00120305
0.00282441
0.00271134
0.00243393
0.0012725
0.00280128
0.00271019
0.00246794
0.00140758
0.00277958
0.00270678
0.00249351
0.00153775
0.00279156
0.00271942
0.00249361
0.0015833
0.00290548
0.00280212
0.00246578
0.00143989
0.00293684
0.00274009
0.0022416
0.00126364
0.00150988
0.0014097
0.00130985
0.00260097
0.000542902
0.000498969
0.000445373
0.000377576
0.000757715
0.000846244
0.000845539
0.00081862
0.000777321
0.000409832
0.00169445
0.00166239
0.00147857
0.00120115
0.000461001
0.00304704
0.00282826
0.00236114
0.00170759
0.00052153
0.00375216
0.0035516
0.00302446
0.0021101
0.000583672
0.0040174
0.00387646
0.00339785
0.00237268
0.000643312
0.00406342
0.0039554
0.0035503
0.00252396
0.000700509
0.00402931
0.00390427
0.0035664
0.00259326
0.000755794
0.00396219
0.00377836
0.00349813
0.0026054
0.000809599
0.00387016
0.0036155
0.00335827
0.00257993
0.000861173
0.00375067
0.00343252
0.00317442
0.00251795
0.000909227
0.00359307
0.00324241
0.00297456
0.00238827
0.000952765
0.00340793
0.00307014
0.00279186
0.00223174
0.00099098
0.00324228
0.0029348
0.00264483
0.00208871
0.00102355
0.0031357
0.00284871
0.00254503
0.0019807
0.00105092
0.00308621
0.0028104
0.00249227
0.00191274
0.00107406
0.00308061
0.00281024
0.00248179
0.00188396
0.00109407
0.00310076
0.00283778
0.00250605
0.00189038
0.001112
0.00313459
0.00288395
0.00255687
0.00192628
0.00112847
0.00317202
0.00293697
0.00262361
0.00198134
0.0011436
0.00320574
0.00298891
0.00269709
0.00205598
0.00115727
0.00323141
0.00303384
0.00276973
0.00214993
0.00116931
0.00324695
0.00306747
0.00283518
0.00226124
0.00117972
0.00308628
0.00288596
0.00238126
0.00118879
0.00308817
0.00291249
0.00248918
0.00119675
0.00307526
0.00291155
0.0025544
0.00120307
0.00305262
0.00288822
0.0025642
0.00120652
0.00302548
0.0028527
0.00253986
0.0012062