/*--------------------------------*- C++ -*----------------------------------*\
| =========                 |                                                 |
| \\      /  F ield         | OpenFOAM: The Open Source CFD Toolbox           |
|  \\    /   O peration     | Version:  2.3.1                                 |
|   \\  /    A nd           | Web:      www.OpenFOAM.org                      |
|    \\/     M anipulation  |                                                 |
\*---------------------------------------------------------------------------*/
FoamFile
{
    version     2.0;
    format      ascii;
    class       volScalarField;
    location    "600";
    object      epsilon;
}
// * * * * * * * * * * * * * * * * * * * * * * * * * * * * * * * * * * * * * //

dimensions      [0 2 -3 0 0 0 0];

internalField   nonuniform List<scalar> 
6852
(
0.0250938
0.0148285
0.00695522
0.00304753
0.00153479
0.0636637
0.0466285
0.0280826
0.0126843
0.00341633
0.0750252
0.0625519
0.0430537
0.022669
0.00603977
0.0743615
0.068632
0.0516196
0.0294939
0.00870558
0.0693298
0.0699621
0.057191
0.0357276
0.0118332
0.0795412
0.0806638
0.0674256
0.0442591
0.0158758
0.0943777
0.0950155
0.0801492
0.054479
0.0207906
0.111733
0.0944296
0.065841
0.0264015
0.130209
0.109616
0.0777978
0.0324251
0.149385
0.124717
0.0895668
0.0384349
0.167772
0.138479
0.100185
0.0438921
0.183182
0.14933
0.108556
0.0482131
0.193358
0.155859
0.11373
0.0509014
0.196564
0.157214
0.115143
0.051675
0.192228
0.153327
0.112731
0.0505301
0.18111
0.144899
0.106905
0.0477257
0.16498
0.133128
0.0984018
0.0437021
0.146014
0.119357
0.087993
0.0390261
0.12623
0.104753
0.0765903
0.0341258
0.107123
0.0898219
0.065461
0.0292831
0.089371
0.0757481
0.0549374
0.0247337
0.0738204
0.062874
0.0452814
0.0205144
0.0604118
0.0513155
0.0366361
0.0166534
0.0488907
0.041122
0.0290482
0.0131878
0.0390233
0.0322877
0.0225091
0.0101496
0.0306166
0.0247704
0.017003
0.00755649
0.0235312
0.0185306
0.0125523
0.00540726
0.0176766
0.0135085
0.0090643
0.00368881
0.0130147
0.0096687
0.00642631
0.00240325
0.00952127
0.00696459
0.00454611
0.00156038
0.00717078
0.00521288
0.00336121
0.0011792
0.00574921
0.00414603
0.00266111
0.000982409
0.00489405
0.00350033
0.00228327
0.00091844
0.00428823
0.00305885
0.00211474
0.000930941
0.00372367
0.00268292
0.00198821
0.000946537
0.00313734
0.00233874
0.00181745
0.000921511
0.00263476
0.00202685
0.00159435
0.000852716
0.00225874
0.00179663
0.00138946
0.000756688
0.00210253
0.00168457
0.00127388
0.000658438
0.0021981
0.00176057
0.00129538
0.00058864
0.00137972
0.00115958
0.00083083
0.000408005
0.0408986
0.0244259
0.0111331
0.00435369
0.00208074
0.0224232
0.0191826
0.0140883
0.00889349
0.00618989
0.0176876
0.0179966
0.015438
0.0111203
0.00909584
0.0111999
0.0143863
0.0147742
0.0120626
0.0112684
0.00780004
0.0114942
0.0138033
0.012765
0.0142316
0.00767042
0.0114546
0.0145007
0.0142866
0.0184035
0.00909324
0.013138
0.0164538
0.0165202
0.0238441
0.0112779
0.015775
0.0191823
0.0192189
0.030472
0.0190977
0.0224148
0.0221673
0.0381157
0.0229255
0.0259058
0.0251389
0.0464711
0.0271288
0.0293982
0.0278923
0.0550813
0.0314537
0.0325647
0.0301671
0.063349
0.0353602
0.0350172
0.0317271
0.0706092
0.038292
0.0364358
0.0324206
0.0762559
0.0398291
0.0366591
0.0322153
0.0798542
0.0398179
0.0357184
0.0311976
0.0812031
0.0383841
0.0338076
0.0295411
0.0803331
0.0358516
0.0312106
0.0274504
0.077472
0.0326222
0.0282247
0.0251238
0.0729365
0.0290742
0.025086
0.0227479
0.0670713
0.0254912
0.022011
0.0204498
0.060065
0.0220951
0.0191473
0.0184518
0.0521867
0.0190123
0.0165716
0.0166842
0.0441423
0.0162933
0.0143212
0.0150724
0.0364467
0.01393
0.0124249
0.0135685
0.029454
0.0119411
0.010861
0.0121588
0.0233173
0.0102995
0.00957975
0.0108284
0.0180021
0.00896751
0.00853219
0.00955398
0.0134602
0.00790699
0.00767289
0.00832519
0.00965187
0.0070795
0.00693929
0.00714051
0.00655105
0.00643538
0.0062706
0.00600911
0.00414517
0.00589721
0.00561613
0.00494576
0.00243177
0.00539378
0.00494969
0.00404844
0.00167815
0.00486586
0.00429544
0.00331992
0.00157329
0.0043094
0.00367535
0.00272899
0.00164154
0.0037241
0.00306247
0.00211959
0.00162891
0.00311193
0.00244064
0.00147092
0.00148098
0.00249517
0.00183897
0.00099212
0.00127698
0.00196156
0.00134769
0.000727082
0.00110371
0.00164676
0.001151
0.000847298
0.00103595
0.00293753
0.0023625
0.00164442
0.000635507
0.0409344
0.0246322
0.0113932
0.00420934
0.00211781
0.0152137
0.0132986
0.0100377
0.00685294
0.00612473
0.00858972
0.00932005
0.00872357
0.00719442
0.00823846
0.00560073
0.0067827
0.00746252
0.00709151
0.010046
0.00444107
0.00533859
0.00655654
0.00703895
0.0126606
0.00427708
0.00489478
0.00632541
0.0073837
0.0163896
0.00442129
0.00501664
0.00662797
0.00811385
0.0213674
0.00468471
0.00546788
0.00730233
0.00913838
0.027615
0.00508433
0.00616951
0.00824054
0.010364
0.035059
0.00709247
0.00936015
0.0116959
0.0435202
0.00821727
0.0105794
0.0130357
0.0526712
0.0095117
0.0117962
0.0142796
0.0620136
0.0108717
0.012879
0.0153258
0.070907
0.012133
0.0136969
0.0160937
0.0786731
0.0131196
0.0141547
0.0165391
0.0847088
0.0137038
0.0142153
0.0166587
0.0885785
0.0138369
0.0139013
0.0164839
0.090061
0.0135479
0.0132797
0.0160672
0.0891544
0.0129187
0.0124386
0.0154685
0.0860319
0.0120527
0.011466
0.0147967
0.0809209
0.0110496
0.0104421
0.0141857
0.0741348
0.00999461
0.00942923
0.0135844
0.0663655
0.00895224
0.00848828
0.0129508
0.0581892
0.00796481
0.00765993
0.0122591
0.0500386
0.00706199
0.0069502
0.0115134
0.0421453
0.00626405
0.00635089
0.0107204
0.0346725
0.00557655
0.00584798
0.00988988
0.0278039
0.00499757
0.00542502
0.00903208
0.0216493
0.00452038
0.00506551
0.00815845
0.0162737
0.00413548
0.00475351
0.00728277
0.0117106
0.00383198
0.00447418
0.00641784
0.00796339
0.00359586
0.00421414
0.00557486
0.00501519
0.00341253
0.00396813
0.00476835
0.00286144
0.00327536
0.00371966
0.00403987
0.00151335
0.00315987
0.00346726
0.00347361
0.0013734
0.00303048
0.00318711
0.00296223
0.00151091
0.00284129
0.00282935
0.00237475
0.00150073
0.00254998
0.0023432
0.00165453
0.00134712
0.00219248
0.00182257
0.000954501
0.00117789
0.00197351
0.0013798
0.000886378
0.00111822
0.0035123
0.00273946
0.00188632
0.00070763
0.0380961
0.0224357
0.0102353
0.00369961
0.00191839
0.0154353
0.0122975
0.00850067
0.00546729
0.00561466
0.00897733
0.00835869
0.0070152
0.00552668
0.0076325
0.00656791
0.00632951
0.00588033
0.00528215
0.00973508
0.00564476
0.00523399
0.00509579
0.00509636
0.0127869
0.0053576
0.00468163
0.00465831
0.0051549
0.0171588
0.00531841
0.0044269
0.00450572
0.00548905
0.0230724
0.00535857
0.00434509
0.00458231
0.00609107
0.0305429
0.00537493
0.0043826
0.00484583
0.00709951
0.0391485
0.00532157
0.00452751
0.00527022
0.00837697
0.0486763
0.00479963
0.00582409
0.00981334
0.0587032
0.00521515
0.00644024
0.0113193
0.0686224
0.00571858
0.00705237
0.0127878
0.0777176
0.00623735
0.00759328
0.0141107
0.0852842
0.00669646
0.00800792
0.0151971
0.090746
0.00703362
0.00826296
0.0159857
0.0937401
0.00721254
0.00835018
0.0164491
0.0941525
0.00722578
0.00828277
0.0165914
0.0921041
0.00708939
0.00808778
0.0164404
0.0878984
0.00683355
0.00779826
0.0160438
0.0819496
0.00649344
0.00744784
0.0154619
0.0747345
0.00610305
0.00706603
0.0147429
0.0667578
0.00569153
0.00667754
0.0139262
0.0584681
0.0052817
0.00630063
0.0130437
0.0502245
0.00489031
0.00594578
0.012121
0.0422881
0.004529
0.00561731
0.0111777
0.0348404
0.0042046
0.00531518
0.0102278
0.0279917
0.00392001
0.00503626
0.00927978
0.0217928
0.00367506
0.00477552
0.00834214
0.0163583
0.00346715
0.00452684
0.00742356
0.0117583
0.00329166
0.00428366
0.00653364
0.00802324
0.00314221
0.00403991
0.00568282
0.00513518
0.00301126
0.00379096
0.00488527
0.00302294
0.00289091
0.00353384
0.0041549
0.00165342
0.0027761
0.00328221
0.00358984
0.00120662
0.00266172
0.00303388
0.00311094
0.00139427
0.00253168
0.00275636
0.00259268
0.00145094
0.00235379
0.0023859
0.00191822
0.00134809
0.00213921
0.00195086
0.00115632
0.00120811
0.00204475
0.00153432
0.000915158
0.00114348
0.00364832
0.00287353
0.00197255
0.000725959
0.0290859
0.0159393
0.00657016
0.00270527
0.00145424
0.0159654
0.0112778
0.00683203
0.00405093
0.00438941
0.0115276
0.0089905
0.00629343
0.00439523
0.00645927
0.00961828
0.00755198
0.00560535
0.00438584
0.00902916
0.00867637
0.00655394
0.00499255
0.00448628
0.0126846
0.00809285
0.00579069
0.00463582
0.00506067
0.0175473
0.00750488
0.0053766
0.00461395
0.006095
0.0237737
0.00716697
0.00526106
0.0049009
0.00754702
0.0313489
0.0070458
0.0054
0.00545601
0.00936843
0.0399907
0.00711562
0.00574787
0.00622418
0.0114533
0.0492845
0.00734417
0.00625611
0.00713741
0.0136643
0.0586638
0.00686954
0.00811539
0.0158458
0.0674449
0.00751875
0.00906998
0.0178289
0.0749204
0.00813943
0.00992189
0.0194655
0.0804865
0.00867929
0.0106125
0.0206526
0.083741
0.00910332
0.0111095
0.0213436
0.0845318
0.0093961
0.0114067
0.021546
0.0829519
0.00955886
0.0115182
0.0213094
0.079291
0.00960422
0.0114706
0.0207093
0.0739628
0.00955062
0.0112956
0.0198308
0.0674307
0.00941777
0.0110242
0.0187579
0.0601519
0.00922362
0.0106835
0.0175637
0.0525407
0.00898293
0.0102947
0.0163063
0.0449436
0.00870695
0.00987324
0.0150278
0.0376292
0.00840376
0.00942878
0.0137559
0.0307905
0.00807893
0.00896669
0.0125068
0.0245582
0.0077363
0.00848937
0.0112897
0.0190072
0.00737867
0.00799761
0.0101107
0.0142328
0.0070081
0.0074912
0.00897225
0.0102193
0.00662577
0.00696937
0.00787626
0.00696102
0.00623204
0.00643221
0.00683253
0.00446687
0.00582611
0.00588004
0.00584826
0.0026878
0.00540565
0.00531416
0.00494203
0.0014709
0.00496917
0.0047457
0.00417687
0.00128396
0.00452053
0.00419204
0.00352981
0.00140029
0.0040613
0.00365533
0.00292899
0.00149184
0.00358286
0.00311212
0.00228819
0.00145865
0.00308
0.00254259
0.001501
0.00132767
0.00260499
0.00196933
0.000933509
0.00115858
0.00218495
0.00144059
0.000941527
0.00110938
0.00319732
0.00258673
0.00183288
0.000689711
0.0108576
0.00534046
0.00237491
0.00124877
0.000801348
0.0198478
0.0112035
0.00559896
0.00341225
0.00178385
0.0233567
0.0131115
0.00747988
0.00516904
0.00299071
0.0271973
0.0159555
0.00989911
0.00743096
0.00470751
0.0322464
0.0197533
0.0130279
0.0104568
0.00710262
0.0382319
0.0244882
0.0170264
0.0144491
0.0102213
0.04516
0.0302601
0.0219987
0.0194539
0.0140375
0.053172
0.0370723
0.0279058
0.0253608
0.0184329
0.0622622
0.0447832
0.0345578
0.0319215
0.0231865
0.0721
0.0530346
0.041615
0.0387744
0.0279989
0.0819425
0.0612542
0.0486259
0.0454797
0.0325186
0.090547
0.0687052
0.0550823
0.051567
0.0363814
0.0747163
0.0605301
0.0566126
0.039273
0.0789965
0.0647116
0.0603386
0.0409922
0.0815647
0.0675611
0.0626322
0.0414724
0.082637
0.0691509
0.0635202
0.0407724
0.0825064
0.0696263
0.0631243
0.0390469
0.0814436
0.0691461
0.0616138
0.0365063
0.0796493
0.0678465
0.0591687
0.0333792
0.0772458
0.0658275
0.0559577
0.0298833
0.0742899
0.0631537
0.0521296
0.0262092
0.0707961
0.0598656
0.0478143
0.0225144
0.066761
0.0559945
0.0431276
0.0189225
0.0621854
0.0515788
0.038179
0.0155256
0.0570915
0.0466765
0.0330804
0.012391
0.0515333
0.0413755
0.0279527
0.00956702
0.0456042
0.0357999
0.0229309
0.00710094
0.0394389
0.0301095
0.0181534
0.00500151
0.0332103
0.0244957
0.0137607
0.00327224
0.0271221
0.0191736
0.00989929
0.00193905
0.0213987
0.0143767
0.00674755
0.0011609
0.0162646
0.0103163
0.00441701
0.00087347
0.0119082
0.00711383
0.00282779
0.000737556
0.00844684
0.0047899
0.00184093
0.000711672
0.00589824
0.00329431
0.00145789
0.000740655
0.00412316
0.0023731
0.00145165
0.000767758
0.00286894
0.00164893
0.0013936
0.000753513
0.00203265
0.00139067
0.00126456
0.000703245
0.00169091
0.00152866
0.00124989
0.000648792
0.00219452
0.00186555
0.00139847
0.000620502
0.00148184
0.00128849
0.000935509
0.000447741
2.01235e-05
1.35931e-05
8.17526e-06
4.66822e-06
2.49524e-06
6.72564e-05
4.8315e-05
3.00904e-05
1.63215e-05
6.50529e-06
0.000122536
9.53999e-05
6.40728e-05
3.64027e-05
1.36449e-05
0.000182741
0.000152598
0.000110042
6.59792e-05
2.43662e-05
0.000241718
0.000213934
0.000164075
0.000103452
3.78182e-05
0.000307602
0.000280637
0.00022445
0.000146944
5.28293e-05
0.000380363
0.000357606
0.000293459
0.000197078
7.00012e-05
0.000460455
0.000446817
0.000381528
0.000268451
9.66247e-05
0.000562173
0.000555384
0.000483707
0.000350317
0.000132226
0.000667089
0.000668102
0.000596005
0.000447919
0.000179073
0.000790568
0.00079837
0.00072792
0.000566205
0.000238931
0.000922468
0.000940749
0.000878119
0.000704953
0.000311878
0.00106322
0.00109751
0.0010487
0.000864458
0.000397145
0.00121458
0.00127051
0.00123724
0.0010423
0.000492499
0.0013773
0.00146051
0.00144169
0.00123445
0.000594426
0.00166727
0.0016585
0.00143519
0.000698529
0.00188934
0.00188276
0.00163756
0.000800141
0.00212013
0.00210756
0.00183399
0.000894952
0.00234564
0.00232397
0.00201704
0.000979518
0.00256442
0.00252624
0.00218102
0.00105157
0.00277313
0.00270993
0.00232193
0.00110988
0.00296731
0.00287094
0.00243684
0.00115375
0.00314098
0.00300483
0.00252315
0.00118268
0.00328578
0.0031063
0.00257815
0.00119602
0.00339408
0.0031698
0.00259899
0.00119302
0.00345733
0.00318962
0.00258297
0.0011731
0.00346632
0.00316045
0.00252827
0.00113618
0.00341317
0.00307883
0.00243491
0.00108325
0.00329352
0.00294486
0.00230595
0.0010167
0.00310948
0.00276411
0.00214815
0.000940455
0.00287145
0.0025478
0.00197159
0.000859481
0.00259922
0.00231221
0.00178848
0.000778943
0.00232345
0.00207683
0.00161097
0.000703034
0.00207182
0.00186205
0.00144889
0.0006338
0.00190019
0.00168727
0.00130698
0.000569966
0.00183201
0.00155834
0.00118089
0.000506138
0.00182638
0.00144986
0.00105105
0.0004329
0.00175995
0.00129435
0.000881263
0.000340362
0.0015022
0.00102988
0.000652921
0.000235576
0.00101862
0.000646724
0.000392397
0.000148566
0.000332714
0.000219498
0.000158233
8.98424e-05
3.62593e-05
2.28086e-05
1.23207e-05
6.53692e-06
2.60128e-06
4.38191e-05
3.05671e-05
1.89759e-05
9.92126e-06
7.24562e-06
5.17628e-05
4.30055e-05
3.12428e-05
1.90509e-05
1.57342e-05
6.54721e-05
5.89309e-05
4.79671e-05
3.32752e-05
3.11174e-05
9.20949e-05
7.93206e-05
6.78183e-05
5.18978e-05
5.39748e-05
0.000132986
0.000113411
9.46061e-05
7.66649e-05
8.51374e-05
0.000179139
0.000154618
0.000126305
0.000105289
0.000129412
0.000224528
0.000193638
0.000159097
0.00013594
0.000182187
0.000266978
0.000231542
0.000191968
0.000168738
0.000248004
0.000306481
0.000266573
0.000223172
0.000203213
0.000327974
0.000340206
0.000296967
0.000251806
0.000239483
0.000422918
0.000364736
0.000320964
0.000277065
0.000277646
0.000532522
0.00038191
0.000339781
0.000301212
0.000318573
0.000655966
0.000393768
0.00035522
0.000330561
0.0003636
0.00079115
0.000402293
0.000368804
0.000363466
0.000412294
0.000934687
0.000409374
0.000381901
0.000399679
0.000463634
0.00108201
0.000395513
0.000438686
0.000516124
0.00122791
0.00041365
0.00048004
0.000568038
0.00136724
0.000443833
0.000523868
0.000617778
0.00149574
0.000479491
0.000568285
0.00066383
0.00161045
0.000516855
0.000611391
0.00070498
0.00170965
0.000554787
0.000651869
0.000740372
0.00179233
0.000592501
0.000688665
0.000769341
0.00185765
0.00062978
0.000720806
0.000791233
0.00190446
0.000664854
0.000746974
0.000805261
0.00193108
0.000695289
0.000765474
0.000810484
0.00193549
0.000718234
0.000774366
0.000805924
0.00191576
0.000730795
0.000771728
0.000790807
0.00187084
0.000730418
0.000755962
0.000764936
0.00180146
0.000715185
0.00072665
0.000729106
0.00171085
0.000684969
0.000684962
0.000685228
0.00160487
0.000645933
0.000634191
0.00063636
0.00149124
0.000611421
0.000579925
0.00058654
0.00137794
0.000626001
0.000532619
0.000540684
0.001271
0.000707428
0.000505199
0.000503975
0.00117164
0.00082095
0.000516766
0.000480609
0.00107244
0.000899417
0.000555849
0.000468608
0.000954785
0.000888791
0.000575337
0.000455928
0.000792753
0.00079602
0.000566606
0.000426847
0.000584692
0.000718057
0.00052471
0.000361974
0.000383605
0.000939913
0.00065551
0.000411668
0.000182478
5.3461e-05
3.03097e-05
1.39991e-05
6.30928e-06
2.3132e-06
5.8308e-05
3.81608e-05
2.28197e-05
1.15839e-05
6.11348e-06
4.60628e-05
3.4173e-05
2.38773e-05
1.40489e-05
9.3698e-06
5.12669e-05
4.23957e-05
3.32581e-05
2.28946e-05
2.00823e-05
8.92454e-05
7.05034e-05
5.34198e-05
3.902e-05
4.35531e-05
0.000139433
0.000110611
8.1837e-05
6.16309e-05
8.11163e-05
0.000186472
0.000151318
0.00011387
8.83502e-05
0.000133153
0.000231077
0.000190811
0.000146321
0.000117205
0.000198296
0.000273085
0.000228012
0.000177538
0.000146849
0.000277793
0.000310024
0.000260337
0.000205293
0.000175741
0.000371509
0.000338279
0.000285198
0.000227731
0.000202845
0.000479173
0.00035422
0.000300384
0.000243293
0.000227432
0.000599736
0.000361165
0.000307614
0.000252745
0.000249892
0.000732105
0.00036167
0.000308846
0.000257685
0.000271123
0.000874502
0.000358268
0.000306259
0.000260984
0.000292103
0.00102418
0.000353066
0.000301695
0.000264605
0.000313426
0.00117753
0.000347754
0.000296623
0.000269313
0.00033517
0.00133034
0.000292176
0.000275472
0.000357059
0.00147831
0.000289748
0.000283326
0.000378653
0.00161771
0.000290418
0.000292834
0.000399442
0.00174579
0.00029513
0.000303786
0.000418955
0.00186081
0.000303239
0.000315701
0.000436776
0.00196171
0.000314307
0.000328034
0.000452523
0.00204754
0.00032783
0.000340207
0.000465791
0.00211685
0.00034319
0.00035154
0.000476093
0.00216743
0.000359749
0.000361243
0.000482839
0.00219638
0.000376928
0.000368463
0.00048535
0.00220056
0.000394922
0.000372412
0.000482924
0.00217748
0.000414439
0.000372543
0.000475093
0.00212654
0.000443867
0.000369619
0.000462013
0.00205043
0.000499176
0.000366104
0.000444554
0.00195531
0.000597461
0.000367025
0.000424516
0.00185002
0.000745865
0.000389617
0.000405739
0.00174564
0.000935373
0.000484885
0.000395504
0.00165292
0.00114403
0.000671321
0.000398056
0.00157519
0.00132333
0.00089376
0.0004159
0.00150354
0.00140462
0.00103491
0.000449355
0.00140981
0.00132807
0.00100264
0.000474849
0.00124097
0.00107929
0.000802591
0.000476818
0.000972109
0.000875458
0.000671909
0.000447002
0.000661906
0.00138679
0.0010243
0.000652331
0.000320572
9.21547e-05
5.12744e-05
2.37724e-05
8.56639e-06
3.74978e-06
7.83314e-05
5.34904e-05
3.39999e-05
1.94925e-05
1.47235e-05
6.24232e-05
4.30312e-05
2.90487e-05
1.77816e-05
1.54551e-05
6.11264e-05
4.76983e-05
3.45943e-05
2.25506e-05
2.12065e-05
0.000114403
8.5088e-05
5.78708e-05
3.74392e-05
4.10259e-05
0.000170813
0.000132728
9.1539e-05
6.07951e-05
8.04743e-05
0.000221688
0.000179543
0.000128524
8.95155e-05
0.000139653
0.000269722
0.000224651
0.000165832
0.00012117
0.000216828
0.000314319
0.000266647
0.000201706
0.000153918
0.000311618
0.000352616
0.000302355
0.000233443
0.000185697
0.000423324
0.000381169
0.00032899
0.000258662
0.000214848
0.000551327
0.000396803
0.000344164
0.000275077
0.000239873
0.000694155
0.000403457
0.000350548
0.000283446
0.000260727
0.000850258
0.000403803
0.000350295
0.000285107
0.000278036
0.00101744
0.000400932
0.000345717
0.000282038
0.00029281
0.00119249
0.000397132
0.000338831
0.000276024
0.000306025
0.00137122
0.000394494
0.000331475
0.000269709
0.000318496
0.001549
0.000394745
0.00032504
0.000264722
0.000330698
0.00172123
0.000320497
0.000261389
0.000342756
0.00188394
0.00031884
0.000259912
0.00035462
0.00203416
0.000320722
0.000260295
0.000366157
0.00216991
0.000326628
0.000262407
0.000377185
0.00228974
0.000337068
0.000266074
0.000387477
0.00239216
0.000352672
0.000271099
0.000396752
0.00247508
0.00037429
0.000277306
0.000404652
0.00253552
0.000407664
0.000284953
0.000410761
0.00256986
0.000458395
0.000294348
0.000414563
0.00257428
0.000532006
0.000305897
0.00041548
0.00254592
0.000630309
0.000325902
0.000413438
0.00248498
0.00075573
0.00036162
0.000409139
0.00239618
0.000915752
0.000426429
0.000404787
0.00228977
0.00111769
0.000577164
0.000405836
0.00218176
0.0013654
0.000845217
0.000420698
0.00209116
0.00164311
0.00119621
0.000469864
0.0020379
0.00190653
0.00156297
0.00058598
0.00203571
0.00209515
0.00185388
0.000818664
0.00207073
0.00215429
0.00197928
0.00104259
0.00206186
0.00204369
0.00185986
0.00105856
0.00190692
0.00165944
0.00142605
0.000904367
0.00157826
0.00119978
0.00100243
0.00072673
0.00113921
0.00197163
0.00150876
0.001055
0.000555978
0.000147552
8.58726e-05
4.26167e-05
1.6529e-05
8.04053e-06
9.80111e-05
7.02644e-05
4.79435e-05
3.11455e-05
3.02952e-05
8.54216e-05
5.89512e-05
4.07876e-05
2.7604e-05
3.36081e-05
9.18467e-05
6.92257e-05
4.83656e-05
3.1962e-05
4.30423e-05
0.00015854
0.000118465
7.82094e-05
4.86556e-05
6.61147e-05
0.000218968
0.000173445
0.000118319
7.44782e-05
0.000109278
0.000273073
0.000227125
0.000161287
0.000105815
0.000174544
0.000324765
0.000279526
0.000205327
0.000140611
0.000261163
0.000372742
0.000328355
0.000248622
0.000177287
0.000368677
0.000414096
0.000369478
0.000287527
0.000213454
0.000496336
0.000445622
0.000399947
0.000318784
0.000246938
0.000643675
0.00046472
0.00041753
0.000339336
0.000275484
0.000809199
0.000474911
0.000426492
0.000350297
0.000298817
0.000991098
0.000479058
0.000429068
0.00035299
0.000317432
0.00118669
0.000480994
0.000427702
0.000349806
0.000332244
0.00139185
0.000483595
0.00042449
0.000342572
0.000344184
0.00160119
0.000489855
0.000421828
0.000332096
0.000354058
0.00180848
0.000502231
0.000421645
0.000319642
0.000362552
0.00200775
0.000522969
0.000425654
0.000309219
0.000370359
0.00219423
0.000435247
0.00030218
0.000377932
0.00236448
0.000452549
0.000298521
0.000385469
0.00251601
0.000479955
0.00029838
0.000392998
0.00264675
0.000519533
0.000302846
0.000400465
0.00275441
0.00057428
0.000313147
0.000407708
0.00283606
0.000647295
0.000331203
0.000414459
0.00288802
0.000740664
0.000359983
0.000420394
0.00290629
0.000856423
0.00040412
0.000425332
0.0028875
0.000997794
0.000471179
0.000430142
0.002831
0.0011699
0.000587785
0.000437717
0.00274226
0.00137863
0.000787964
0.000454033
0.00263435
0.00162874
0.0010916
0.000489661
0.00252761
0.00191245
0.00146724
0.000565037
0.00244845
0.00220966
0.00188806
0.000718559
0.00243181
0.00249026
0.00231192
0.00110604
0.00251813
0.00271925
0.00268839
0.00169812
0.00268099
0.00286529
0.00296239
0.00228215
0.00282052
0.00290925
0.00307524
0.00264205
0.00286319
0.00284269
0.00295174
0.00258402
0.00271396
0.00248656
0.00238088
0.00188345
0.00233125
0.0016664
0.00149524
0.00124053
0.00178524
0.00274631
0.00215582
0.00164229
0.000894083
0.000205656
0.000127892
6.91121e-05
3.00482e-05
1.4774e-05
0.000114393
8.56272e-05
6.2063e-05
4.42862e-05
4.94496e-05
0.000110696
7.81438e-05
5.59036e-05
4.11085e-05
5.81278e-05
0.000144238
0.00010598
7.27596e-05
4.97145e-05
7.95773e-05
0.000217428
0.000166637
0.00011121
7.1417e-05
0.000119027
0.000278331
0.000227933
0.000158256
0.000101586
0.000178264
0.000335302
0.000289626
0.000209188
0.000137196
0.000257603
0.000391372
0.000351351
0.000263538
0.000177227
0.000357162
0.000444053
0.000408614
0.000318599
0.000220714
0.000477753
0.000490956
0.000456387
0.000368926
0.000263905
0.000619262
0.000529391
0.000491874
0.000409981
0.000303534
0.000781865
0.000555011
0.000513805
0.000438153
0.000336469
0.00096445
0.000572388
0.000527925
0.000455267
0.000363539
0.00116554
0.000584634
0.000536779
0.00046333
0.000387534
0.0013814
0.000596625
0.000543779
0.000465766
0.000408768
0.00160539
0.000611781
0.000551107
0.000464652
0.000426094
0.0018314
0.000634165
0.000561616
0.000461799
0.000439211
0.00205325
0.000667202
0.000578041
0.000458687
0.000448406
0.00226502
0.000714402
0.000603512
0.000454865
0.000454332
0.00246148
0.000778183
0.000640957
0.00045248
0.000458145
0.00263824
0.000693599
0.000455046
0.000461197
0.00279156
0.000764851
0.000466395
0.000464629
0.00291799
0.000858099
0.00049154
0.00046924
0.00301431
0.000976566
0.000537476
0.000475453
0.00307757
0.00112229
0.000613536
0.000483503
0.00310572
0.00129349
0.000731455
0.000493953
0.00309826
0.00148961
0.000905692
0.000511541
0.00305449
0.00171286
0.00115202
0.000546064
0.00297735
0.0019626
0.00146539
0.000607149
0.00288435
0.00223061
0.00182709
0.000716718
0.00280156
0.00250977
0.00222644
0.000914219
0.00276548
0.00278665
0.0026491
0.00135539
0.00282379
0.00304406
0.0030733
0.0020661
0.00297515
0.00326149
0.00346418
0.00283536
0.00314678
0.00342495
0.00379299
0.00351904
0.00331096
0.00353123
0.00403283
0.00403086
0.00341462
0.00358973
0.0041511
0.00429514
0.00343257
0.00362584
0.00409146
0.00415616
0.00330689
0.00353287
0.0036441
0.00333816
0.00298052
0.00232507
0.00218512
0.00194683
0.00245375
0.00374432
0.00297643
0.0023764
0.0012943
0.000253485
0.000169128
9.97132e-05
4.82844e-05
2.37297e-05
0.000125409
9.77752e-05
7.47523e-05
5.72426e-05
7.16996e-05
0.000138876
0.000101224
7.42595e-05
5.73526e-05
8.9649e-05
0.000210993
0.000155029
0.000106071
7.40207e-05
0.000128721
0.000283379
0.000224585
0.000153852
0.000102561
0.000191173
0.000344913
0.000293498
0.000209308
0.000138871
0.000274636
0.00040604
0.000365814
0.000272346
0.000181838
0.000377205
0.000467834
0.000438646
0.000342696
0.000232465
0.000498697
0.000527343
0.000504616
0.000415079
0.000287855
0.000639533
0.000583019
0.00055889
0.000481353
0.00034391
0.000799499
0.000633055
0.000599805
0.000534792
0.000397208
0.000979005
0.000671801
0.000630432
0.000570316
0.000445422
0.00117648
0.000702154
0.000657204
0.000595689
0.000489349
0.00138821
0.000728599
0.000681171
0.000614427
0.000524684
0.00160796
0.000757834
0.000706206
0.000630008
0.000550192
0.00182978
0.000794001
0.000734608
0.000644448
0.000568928
0.00204873
0.000842218
0.000770684
0.000660504
0.000582857
0.00226022
0.000906601
0.000818543
0.000680907
0.0005918
0.0024597
0.000991217
0.000883237
0.000709088
0.000596633
0.00264277
0.00109797
0.000968152
0.000748966
0.000599226
0.0028054
0.00122783
0.00107708
0.000805852
0.000601774
0.00294361
0.00121244
0.000886255
0.000606609
0.00305347
0.00137648
0.000998307
0.000616258
0.00313173
0.00157017
0.00115124
0.000633841
0.00317662
0.00179175
0.0013513
0.000663844
0.00318896
0.00202973
0.00159796
0.000713877
0.00317258
0.00227958
0.00188859
0.000806855
0.00312936
0.00253984
0.00222145
0.000964352
0.0030807
0.00280699
0.00259407
0.00123252
0.00306045
0.0030714
0.0029906
0.00173881
0.00310461
0.00332787
0.00340196
0.00247515
0.00320208
0.00355971
0.00380647
0.00324116
0.00330894
0.00375454
0.00418375
0.00394338
0.00340375
0.00390757
0.00452831
0.00458296
0.00345788
0.00402153
0.0048346
0.00517765
0.00349332
0.00411103
0.00508767
0.00571348
0.00356438
0.00420886
0.00526027
0.00607631
0.00378482
0.00437597
0.00531286
0.0060141
0.0038514
0.00467701
0.00516002
0.00514644
0.00353412
0.00367889
0.00347917
0.0029157
0.00306213
0.00509516
0.00407029
0.00325683
0.00171275
0.000286247
0.000205683
0.000133036
7.22839e-05
3.60815e-05
0.000131157
0.000106745
8.59996e-05
6.98367e-05
9.89666e-05
0.000175246
0.000132093
9.80305e-05
7.71886e-05
0.000132376
0.000280761
0.00021273
0.000146798
0.000103941
0.000193281
0.000353149
0.000290807
0.00020527
0.000140671
0.000280381
0.000418248
0.00037119
0.000273327
0.00018574
0.000388924
0.000485312
0.00045683
0.000355153
0.000240963
0.000516872
0.000554579
0.000540625
0.000448274
0.000307674
0.000663862
0.000623968
0.000613302
0.000542256
0.000382554
0.000830294
0.000693391
0.000674147
0.000624298
0.00046013
0.00101491
0.000761631
0.000726399
0.000685668
0.000536579
0.00121615
0.000820771
0.000774134
0.000731468
0.000605807
0.00142828
0.000869805
0.00082216
0.000772366
0.000668681
0.00164434
0.000917051
0.000870302
0.000810514
0.000721989
0.00185653
0.000970957
0.000923341
0.000849793
0.000765126
0.00205979
0.00103617
0.0009833
0.000891942
0.000795282
0.00225155
0.00111742
0.00105593
0.000941351
0.0008125
0.00243079
0.00121861
0.00114636
0.00100287
0.000820252
0.00259711
0.00134322
0.00126145
0.0010831
0.000824037
0.00274979
0.00149114
0.00140182
0.0011867
0.000834417
0.00288685
0.00166199
0.00156976
0.00131937
0.000853465
0.00300448
0.00184814
0.00176441
0.00148583
0.00088559
0.00309877
0.00198452
0.001691
0.000938122
0.0031675
0.00222832
0.00194039
0.0010226
0.00321207
0.00249248
0.00223022
0.00115604
0.00323852
0.0027583
0.00255229
0.00137521
0.00325727
0.00302687
0.00290198
0.00174763
0.00328486
0.00329658
0.00328017
0.00229099
0.00332875
0.00356201
0.00368595
0.00297013
0.00338202
0.00380958
0.00408405
0.00361891
0.00342159
0.00403226
0.00447465
0.00423887
0.00342703
0.00422477
0.00486988
0.00487697
0.0033855
0.00437563
0.00526048
0.00556283
0.00332903
0.00447981
0.00563156
0.00632528
0.00337966
0.00454685
0.00596045
0.00714969
0.00399948
0.00461342
0.00623061
0.00796843
0.00541284
0.00475143
0.00644294
0.00858754
0.00705826
0.005067
0.00660861
0.00864427
0.00770569
0.00570344
0.00678007
0.00770246
0.00579742
0.0058481
0.00580861
0.00500707
0.0039176
0.00668296
0.00543918
0.00436301
0.00213452
0.000312877
0.000242749
0.000172613
0.000105358
5.34354e-05
0.000137396
0.000116421
9.83531e-05
8.3739e-05
0.000134924
0.000230241
0.000176933
0.000130455
0.000102304
0.000191181
0.000354062
0.00027835
0.000194873
0.000139653
0.00027612
0.000428476
0.000367569
0.000266669
0.000186331
0.000386571
0.000499739
0.000463805
0.000355181
0.00024442
0.000517258
0.000574057
0.000563115
0.00046448
0.000318908
0.000667555
0.000653596
0.000654433
0.000585697
0.000410694
0.000838177
0.000737565
0.000733291
0.000698525
0.000515525
0.00103015
0.000826151
0.000806793
0.000788586
0.000625456
0.00123998
0.00092037
0.000877424
0.000859198
0.0007279
0.00145962
0.00100798
0.000952106
0.000922301
0.000818495
0.00167965
0.0010809
0.00103072
0.000988381
0.00089927
0.00188967
0.00115561
0.00111267
0.00105702
0.000969776
0.00208148
0.00124034
0.0012034
0.00113217
0.00103199
0.00225197
0.00134018
0.00130303
0.00121435
0.00108852
0.00240293
0.00145609
0.00141791
0.00130982
0.00114393
0.00253888
0.00159106
0.00155294
0.00142453
0.00120373
0.00266505
0.00174743
0.0017167
0.00156741
0.00127246
0.00278476
0.00192179
0.00190265
0.00173895
0.00134898
0.00289784
0.00211179
0.0021125
0.00194335
0.00144725
0.00300258
0.00231383
0.00234421
0.00218145
0.00158165
0.00309682
0.00252373
0.00259517
0.00245474
0.00177237
0.00317987
0.00286258
0.00277005
0.00204559
0.0032536
0.00313921
0.00311276
0.00242183
0.00331968
0.00342051
0.00347676
0.00288333
0.0033734
0.0037015
0.00385518