/*--------------------------------*- C++ -*----------------------------------*\
| =========                 |                                                 |
| \\      /  F ield         | OpenFOAM: The Open Source CFD Toolbox           |
|  \\    /   O peration     | Version:  2.3.1                                 |
|   \\  /    A nd           | Web:      www.OpenFOAM.org                      |
|    \\/     M anipulation  |                                                 |
\*---------------------------------------------------------------------------*/
FoamFile
{
    version     2.0;
    format      ascii;
    class       volScalarField;
    location    "600";
    object      k;
}
// * * * * * * * * * * * * * * * * * * * * * * * * * * * * * * * * * * * * * //

dimensions      [0 2 -2 0 0 0 0];

internalField   nonuniform List<scalar> 
6852
(
0.0339713
0.0239221
0.0144414
0.00833106
0.00691026
0.0398085
0.0323456
0.0230678
0.0135798
0.0089903
0.0444139
0.0393437
0.0306705
0.0199988
0.0131446
0.0441516
0.0418536
0.0346145
0.0238343
0.0167726
0.0421368
0.0423926
0.0370624
0.0270843
0.0205811
0.0461788
0.0466123
0.0413617
0.0312404
0.0250356
0.051756
0.051989
0.0464138
0.0358813
0.0299672
0.057921
0.051775
0.040711
0.0351415
0.0641418
0.0571869
0.0455015
0.0403016
0.0702943
0.0623253
0.0499819
0.045139
0.0759499
0.0668299
0.0538581
0.0493165
0.0805323
0.0702768
0.0568177
0.0525023
0.0834879
0.0723109
0.0586091
0.0544362
0.0844082
0.0727291
0.0590934
0.0549864
0.083162
0.0715255
0.0582655
0.0541712
0.0799238
0.0688798
0.0562402
0.0521478
0.0751049
0.0650968
0.053217
0.0491741
0.0692326
0.0605266
0.0493947
0.0456007
0.0628286
0.0554829
0.0450295
0.0416988
0.0563167
0.0500768
0.0405543
0.0376542
0.049909
0.0446988
0.0360822
0.0336456
0.0439372
0.0394786
0.0317196
0.0297013
0.0384411
0.0344784
0.0275415
0.0258466
0.0333835
0.0297462
0.0235936
0.0221233
0.0287253
0.0253166
0.0199046
0.0185796
0.0244354
0.0212163
0.0165095
0.0152622
0.0205027
0.017484
0.0134854
0.0122102
0.0169426
0.0141618
0.0108544
0.00946224
0.0138146
0.0113317
0.00863025
0.00711109
0.0112162
0.00910567
0.00685187
0.00533198
0.00928451
0.00750643
0.00560246
0.00442378
0.00801285
0.00644372
0.00479465
0.00391678
0.00719715
0.005756
0.00432932
0.00374485
0.00659022
0.00526123
0.00411357
0.00377875
0.00599832
0.00482081
0.0039478
0.00382084
0.00535085
0.00439916
0.0037184
0.0037532
0.00476294
0.00399879
0.00340751
0.003564
0.00429826
0.00368995
0.00310893
0.00329114
0.00409773
0.00353487
0.00293404
0.0029997
0.00422098
0.0036404
0.00296696
0.00278378
0.00491204
0.00437457
0.00350275
0.00285697
0.0296383
0.0210191
0.0124488
0.00665712
0.0064597
0.0205973
0.0190507
0.0159261
0.0120596
0.00841724
0.0166636
0.0172666
0.0161597
0.0135335
0.0108795
0.0127995
0.0147248
0.0153476
0.014024
0.0125494
0.0109237
0.0129705
0.0145822
0.0143963
0.0146628
0.0114483
0.0132174
0.0150079
0.0153336
0.0174039
0.0129167
0.0145002
0.0162181
0.0167099
0.020684
0.0146729
0.0162138
0.0178237
0.0183276
0.0243584
0.0181348
0.0196195
0.0200399
0.0282781
0.0201411
0.0214636
0.0217233
0.0322728
0.0221735
0.0232434
0.0232691
0.0361452
0.0241588
0.0248398
0.0245723
0.0396772
0.0259321
0.0261175
0.0255409
0.0426536
0.0273235
0.0269619
0.0261137
0.0448983
0.02819
0.0273047
0.0262708
0.0462999
0.0284567
0.0271384
0.0260353
0.0468198
0.0281319
0.0265123
0.0254657
0.0464848
0.0272949
0.0255154
0.0246384
0.0453744
0.0260664
0.0242539
0.0236351
0.0435857
0.0245785
0.022823
0.0225409
0.0412167
0.0229463
0.0213231
0.0214241
0.0382938
0.0212772
0.0198377
0.0203899
0.0348676
0.019651
0.0184251
0.0194164
0.0311854
0.01812
0.0171393
0.0184631
0.0274465
0.016712
0.0160209
0.0175087
0.0238128
0.0154756
0.015074
0.0165502
0.0203783
0.0144285
0.0142828
0.0155705
0.01715
0.0135764
0.0136272
0.0145567
0.0141281
0.0129169
0.013074
0.0135001
0.0113185
0.012439
0.0125644
0.0123931
0.00874158
0.0120877
0.0120449
0.0112337
0.00644284
0.0117802
0.0114584
0.0100317
0.00451507
0.0114365
0.0107745
0.0089404
0.00352588
0.0109815
0.0100372
0.00800934
0.00337743
0.0104153
0.00928894
0.00722496
0.00347442
0.00973225
0.00847703
0.00631949
0.00345657
0.00890564
0.00752411
0.00513306
0.00324399
0.0079279
0.00642464
0.00401919
0.00293881
0.00691446
0.0052954
0.00311129
0.00266655
0.00590962
0.00421768
0.00296441
0.00255627
0.00512117
0.00442889
0.00347848
0.00292964
0.0296556
0.0211373
0.0126419
0.00650915
0.0065362
0.0162562
0.0153383
0.013146
0.0105521
0.00835807
0.0113513
0.0120549
0.011858
0.0108107
0.0101846
0.00912276
0.0100015
0.0106642
0.0106063
0.0116246
0.00815318
0.00885951
0.00985283
0.0104631
0.0135628
0.0081464
0.00861884
0.0096539
0.0106632
0.0161099
0.00856496
0.0089058
0.00991157
0.0111779
0.0192257
0.00917031
0.00946933
0.0104539
0.0119161
0.022811
0.00987428
0.010176
0.0111591
0.0127922
0.0267453
0.0109431
0.0119419
0.0137311
0.0308917
0.0117212
0.01274
0.0146685
0.035083
0.0124916
0.0135019
0.015547
0.0391176
0.0132291
0.0141748
0.0163155
0.0427734
0.0138878
0.0147075
0.016933
0.0458422
0.0144122
0.0150588
0.017374
0.0481578
0.0147538
0.0152067
0.0176304
0.0496135
0.014885
0.015151
0.0177112
0.0501656
0.0148041
0.0149116
0.0176373
0.0498283
0.014532
0.0145215
0.0174367
0.048658
0.0141037
0.0140194
0.0171624
0.0467113
0.0135598
0.0134462
0.0168804
0.0440618
0.0129411
0.0128393
0.0165751
0.0409269
0.0122848
0.012247
0.0162232
0.0374924
0.0116222
0.0117078
0.0158071
0.0339041
0.0109845
0.0112311
0.0153322
0.0302376
0.010397
0.01082
0.0148035
0.0265484
0.00987637
0.0104724
0.0142248
0.0229149
0.00943366
0.0101829
0.0135993
0.0193944
0.00907515
0.00994373
0.0129298
0.0160339
0.00880326
0.0097454
0.0122207
0.0128756
0.00861676
0.00957717
0.0114755
0.00995667
0.0085085
0.00942632
0.010691
0.00731544
0.00846854
0.00928773
0.00986962
0.00503237
0.00849595
0.00913738
0.00906722
0.00329111
0.00856005
0.00897813
0.00845518
0.00308493
0.00860203
0.00876757
0.00788549
0.00328755
0.0085245
0.00838632
0.0070833
0.00327277
0.00820809
0.00766419
0.00582512
0.00304546
0.00765431
0.00666992
0.00411837
0.00278474
0.00699935
0.00535291
0.00340709
0.00268987
0.00576911
0.0048883
0.00381175
0.0031473
0.0282684
0.0198613
0.0117701
0.00597245
0.00611918
0.0163501
0.0145907
0.0118567
0.00920459
0.00788734
0.0119868
0.0117216
0.0107781
0.00949784
0.00967889
0.0101884
0.0100939
0.00979356
0.00929236
0.0113835
0.00941317
0.00916822
0.00906349
0.00906692
0.0136529
0.00915992
0.0087138
0.00863593
0.00903992
0.0166101
0.00917192
0.00854607
0.00846669
0.00925136
0.0202353
0.00931036
0.00855325
0.00850031
0.00968804
0.0243962
0.00947068
0.00867026
0.00868672
0.0104088
0.0287866
0.00960078
0.00885976
0.00899014
0.0113059
0.0332858
0.00910358
0.00938282
0.012293
0.0377128
0.0094031
0.00981851
0.0133085
0.0418496
0.00972075
0.0102549
0.0142888
0.0454703
0.010022
0.0106532
0.015176
0.0483757
0.0102777
0.0109819
0.0159241
0.0504196
0.0104639
0.0112193
0.0165028
0.0515226
0.0105649
0.0113556
0.0168989
0.0516737
0.0105749
0.0113923
0.017114
0.0509214
0.010497
0.0113395
0.017161
0.0493593
0.0103418
0.011213
0.0170623
0.0471063
0.0101242
0.0110313
0.0168465
0.0442992
0.00986098
0.010813
0.0165365
0.0410881
0.00956933
0.010577
0.0161502
0.0376121
0.00926531
0.0103393
0.0157016
0.033988
0.00896365
0.0101111
0.0152024
0.0303059
0.00867725
0.00989938
0.0146618
0.026634
0.00841665
0.00970785
0.0140855
0.023018
0.00818998
0.00953711
0.0134758
0.0194801
0.00800295
0.00938512
0.0128331
0.0160894
0.00785873
0.00924714
0.0121574
0.0129105
0.00775758
0.00911582
0.0114483
0.0100065
0.00769621
0.0089816
0.0107057
0.00743166
0.00766785
0.00883411
0.00993769
0.00521999
0.00766327
0.00866437
0.00916273
0.00349118
0.00767769
0.00849779
0.00857057
0.00282982
0.00770652
0.00833715
0.00808018
0.00311611
0.00771729
0.00811163
0.00745401
0.00319997
0.00762536
0.00764593
0.00636406
0.00304691
0.00740425
0.00688983
0.0046603
0.00283217
0.00710976
0.00573827
0.00361407
0.00273024
0.00591711
0.00504652
0.00392705
0.00320142
0.023614
0.0158135
0.00875855
0.00484755
0.00508735
0.0171217
0.0139942
0.0103517
0.00761932
0.00669349
0.0144378
0.0126113
0.0102912
0.00837215
0.00865972
0.0131362
0.0115742
0.00981743
0.00850847
0.0108263
0.0124122
0.0107592
0.00927505
0.0085716
0.01358
0.0119472
0.0100661
0.00888452
0.00893708
0.0168599
0.0114587
0.00962325
0.00875622
0.00962221
0.0206433
0.0110983
0.00941611
0.0088778
0.0105906
0.0248235
0.0108668
0.00941799
0.009216
0.0117912
0.0291981
0.0107676
0.00959342
0.00972434
0.0131424
0.0335625
0.0107967
0.00990276
0.0103496
0.0145525
0.0376959
0.0103035
0.0110341
0.0159317
0.0413695
0.0107444
0.0117184
0.0171924
0.0443726
0.0111811
0.0123513
0.0182632
0.046544
0.0115782
0.0128954
0.019097
0.0477903
0.0119111
0.0133285
0.0196723
0.0480907
0.0121676
0.0136431
0.0199912
0.0474896
0.012345
0.0138434
0.0200738
0.0460819
0.012448
0.0139412
0.0199514
0.0439937
0.0124854
0.0139525
0.0196605
0.0413637
0.0124678
0.0138943
0.0192378
0.0383308
0.0124062
0.0137827
0.0187166
0.035025
0.0123107
0.0136315
0.0181236
0.0315617
0.0121903
0.0134514
0.0174784
0.028037
0.0120526
0.0132501
0.0167937
0.0245278
0.0119037
0.0130317
0.016076
0.021095
0.0117481
0.0127975
0.0153271
0.0177826
0.0115892
0.0125462
0.0145464
0.0146636
0.011428
0.0122737
0.0137293
0.0117579
0.0112633
0.0119723
0.0128687
0.00910258
0.0110897
0.0116317
0.0119649
0.00677202
0.0108972
0.0112385
0.0110159
0.00482668
0.0106704
0.0107796
0.0100465
0.00322928
0.0103943
0.0102631
0.00918399
0.0029495
0.0100631
0.00971481
0.00843671
0.00312506
0.0096709
0.009139
0.00770264
0.00325984
0.00919146
0.00848136
0.00679464
0.00321131
0.00858589
0.00764248
0.00531255
0.00301607
0.0079027
0.00658958
0.00377606
0.00275421
0.00694739
0.00517388
0.00337394
0.00267568
0.00541883
0.00470488
0.00373942
0.00309394
0.0194337
0.0121093
0.00705505
0.00459611
0.00448067
0.018303
0.0125012
0.00787263
0.00565903
0.00582962
0.0204012
0.013883
0.00954944
0.00746428
0.00822718
0.0225804
0.0158242
0.011511
0.00950775
0.0111326
0.025295
0.0182449
0.0138239
0.0119393
0.0146447
0.0283356
0.0210549
0.0165246
0.0148118
0.0186669
0.0316629
0.0242453
0.0196026
0.01806
0.0230637
0.035305
0.0277597
0.0229709
0.0215521
0.0276565
0.0392221
0.0314865
0.0264898
0.0251248
0.0322274
0.0432519
0.0352442
0.0299834
0.028603
0.0365451
0.0471036
0.0387976
0.0332628
0.0318122
0.040379
0.0503459
0.0418833
0.0361457
0.034591
0.0435165
0.044292
0.0384913
0.0368121
0.0457928
0.0459677
0.0402441
0.03841
0.0471196
0.0469587
0.041417
0.0393773
0.0474869
0.0473693
0.0420642
0.0397487
0.0469511
0.0473194
0.0422568
0.0395833
0.0456169
0.0469122
0.0420623
0.0389493
0.0436161
0.0462206
0.0415336
0.0379119
0.0410884
0.045286
0.0407055
0.0365276
0.0381669
0.0441233
0.0395956
0.0348421
0.0349707
0.0427288
0.038209
0.0328917
0.0316016
0.0410894
0.0365436
0.0307057
0.0281441
0.0391898
0.0345962
0.0283094
0.0246662
0.0370194
0.0323678
0.0257293
0.0212229
0.0345759
0.0298683
0.0229966
0.0178616
0.0318702
0.0271208
0.0201525
0.0146424
0.0289288
0.0241648
0.0172459
0.0115914
0.0257966
0.0210592
0.0143376
0.00873575
0.0225388
0.0178862
0.0115111
0.00616308
0.0192445
0.0147623
0.00891551
0.00437788
0.0160279
0.0118322
0.00672152
0.00362159
0.01302
0.00923529
0.00499284
0.00323541
0.0103557
0.00709468
0.00375037
0.00315927
0.00815073
0.00552787
0.00321019
0.00324447
0.00642
0.00444214
0.00320103
0.00332315
0.00504115
0.00348485
0.0031151
0.00328192
0.00400643
0.00311073
0.00291971
0.00313429
0.00354374
0.00331325
0.00289709
0.00297033
0.00421639
0.00378372
0.00312235
0.00288334
0.00515153
0.00469305
0.00379111
0.00303958
0.0002937
0.000226233
0.000161338
0.000111142
9.59247e-05
0.000413605
0.000331904
0.000242263
0.000161348
0.000138718
0.000617001
0.000522345
0.000400864
0.000275283
0.000227288
0.000805164
0.000714167
0.000574569
0.00040889
0.000334322
0.000969955
0.000894263
0.000749497
0.00055142
0.000447802
0.00113875
0.00107131
0.000923215
0.000696325
0.000559164
0.00131163
0.00125889
0.00110356
0.00084648
0.000674105
0.0014896
0.00146004
0.00131404
0.00103946
0.000834906
0.00170153
0.00168785
0.00153928
0.00124131
0.00102898
0.00190709
0.00190902
0.00176901
0.00146217
0.00125942
0.00213572
0.00214969
0.00202114
0.00170931
0.00152632
0.00236711
0.00239815
0.00229027
0.00197815
0.00182297
0.00260211
0.00265756
0.00257793
0.00226623
0.00214171
0.00284349
0.00292985
0.00287826
0.00256724
0.00247218
0.00309202
0.00321498
0.00318714
0.00287382
0.00280264
0.00351148
0.00349914
0.00317759
0.00312123
0.00381668
0.00380796
0.0034699
0.00341734
0.00412175
0.00410562
0.00374241
0.0036826
0.00440937
0.00438243
0.00398782
0.00391146
0.00467978
0.00463358
0.00420152
0.00410138
0.00493073
0.00485596
0.00438096
0.00425194
0.00515868
0.00504683
0.00452466
0.00436354
0.00535847
0.00520291
0.00463116
0.00443638
0.0055223
0.00531971
0.00469843
0.00446981
0.00564334
0.00539223
0.00472386
0.00446243
0.00571351
0.00541487
0.00470452
0.00441263
0.00572364
0.00538192
0.00463787
0.00431954
0.00566512
0.00528888
0.00452294
0.00418424
0.00553202
0.00513429
0.00436171
0.00401094
0.00532398
0.0049219
0.00416025
0.00380766
0.00504866
0.00466152
0.00392889
0.00358565
0.00472422
0.00436938
0.00368152
0.0033578
0.00438374
0.00406739
0.00343352
0.00313575
0.00406103
0.00378169
0.00319899
0.00292615
0.0038332
0.00354094
0.00298636
0.00272604
0.00374052
0.00335788
0.00279085
0.00251832
0.00373237
0.00319985
0.00258211
0.00226891
0.00364091
0.00296642
0.0022957
0.00193256
0.00327589
0.00254685
0.00187944
0.00151192
0.00252826
0.00186734
0.00133823
0.00111175
0.00190338
0.00144209
0.00115945
0.00104186
0.000273372
0.000200906
0.000133536
8.76927e-05
7.52921e-05
0.000417469
0.000324691
0.000231492
0.000146195
9.41102e-05
0.000509743
0.000437049
0.00033821
0.000232281
0.000157833
0.000683592
0.000610009
0.000493402
0.000356515
0.000248372
0.00095595
0.000854115
0.000701923
0.000521154
0.000357973
0.0013062
0.00117105
0.0009743
0.000738502
0.000484328
0.00166077
0.00150682
0.00126342
0.000970494
0.000639644
0.00197198
0.00178911
0.00150823
0.00117574
0.00080311
0.00222963
0.00203101
0.00172195
0.00135878
0.000986192
0.0024454
0.00223009
0.00189942
0.00151796
0.00118801
0.00261121
0.00238049
0.00203753
0.00165374
0.00140733
0.00272299
0.0024793
0.00213464
0.00176663
0.00164094
0.00278665
0.00253483
0.00219696
0.00186117
0.00188557
0.00281095
0.00255672
0.00223445
0.00194181
0.00213645
0.00280648
0.00255511
0.0022597
0.00201391
0.00238767
0.00278415
0.00253936
0.00227921
0.00208111
0.00263253
0.00251695
0.00229717
0.00214521
0.00286434
0.00249601
0.0023162
0.00220644
0.00307736
0.00248629
0.00233783
0.00226407
0.00326755
0.00248689
0.00236211
0.00231707
0.00343283
0.00249781
0.00238876
0.00236453
0.00357264
0.00251814
0.00241705
0.0024057
0.00368712
0.00254638
0.00244564
0.0024397
0.00377634
0.0025805
0.00247246
0.00246529
0.00383963
0.00261656
0.00249464
0.0024808
0.00387541
0.00264963
0.0025086
0.00248414
0.00388134
0.00267425
0.0025104
0.00247298
0.00385491
0.00268573
0.00249618
0.00244519
0.00379437
0.00268066
0.00246278
0.00239943
0.00369989
0.00265852
0.00240929
0.00233602
0.00357466
0.00262457
0.00233807
0.00225738
0.00342533
0.00260199
0.00225674
0.00216866
0.00326153
0.00264628
0.00218192
0.00207842
0.00309403
0.00284789
0.00214106
0.0019986
0.00293165
0.0032056
0.00217354
0.00194289
0.00277666
0.00358551
0.00232787
0.00192157
0.00261749
0.00380894
0.00253327
0.00192321
0.00242221
0.00377027
0.00262109
0.00191047
0.0021396
0.00348646
0.00256674
0.00185198
0.00174643
0.00310532
0.00238224
0.00167524
0.00131852
0.00239632
0.00188474
0.00138233
0.00127541
0.000353246
0.000242153
0.000144864
8.53188e-05
6.92783e-05
0.000520845
0.00039864
0.000284172
0.000178042
8.31749e-05
0.000502057
0.000422924
0.000328944
0.000219443
0.000111612
0.000667895
0.000589968
0.000476032
0.000333748
0.000185741
0.00106332
0.000933208
0.000745498
0.000532076
0.000310572
0.00152074
0.00133512
0.00107193
0.000780621
0.000469136
0.00191467
0.00170663
0.0013915
0.0010371
0.000652081
0.00225029
0.00203186
0.00168074
0.00127664
0.000849906
0.00253269
0.00230723
0.00193093
0.0014893
0.00106378
0.00275919
0.00252458
0.00213234
0.00166715
0.00129107
0.00292113
0.00267732
0.00227941
0.00180694
0.00152965
0.00301549
0.00276255
0.00236902
0.00190745
0.00177641
0.0030556
0.00279382
0.00240996
0.00197436
0.00202893
0.00305448
0.00278465
0.00241283
0.00201502
0.00228412
0.00302642
0.00274879
0.00238769
0.00203709
0.00253784
0.00298462
0.00269828
0.00234944
0.00204783
0.00278534
0.00294015
0.00264277
0.00230695
0.00205267
0.00302154
0.00258931
0.00226522
0.00205511
0.00324185
0.00254354
0.00222755
0.00205709
0.00344282
0.00250775
0.00219552
0.00205941
0.00362248
0.00248324
0.00216959
0.00206217
0.00378012
0.00247141
0.00214957
0.00206502
0.00391576
0.00247329
0.00213482
0.00206729
0.0040293
0.00248671
0.00212395
0.00206797
0.00411984
0.00250903
0.00211501
0.00206576
0.00418529
0.00253822
0.00210588
0.00205914
0.00422251
0.00257323
0.00209463
0.00204644
0.00422787
0.00261676
0.00208004
0.00202599
0.00419822
0.00267394
0.00206293
0.00199686
0.00413241
0.00278433
0.00204936
0.00195972
0.0040331
0.00300351
0.00205047
0.00191709
0.00390724
0.00335431
0.00208344
0.00187422
0.00376551
0.00379482
0.00221384
0.00184389
0.00362234
0.00427597
0.00257998
0.00184723
0.00349275
0.00474242
0.00315534
0.00189044
0.00338221
0.00509216
0.00374093
0.00198141
0.00327871
0.00519746
0.00406336
0.00211965
0.00314084
0.00496599
0.0039652
0.00222512
0.00288462
0.00437402
0.00346097
0.00223216
0.00245109
0.00374867
0.00302874
0.00212527
0.00189692
0.00310566
0.00253785
0.00187893
0.00185699
0.000507235
0.000343076
0.000205492
0.000103901
9.47171e-05
0.000621785
0.000490603
0.000367274
0.000251885
0.000148326
0.000564005
0.000476436
0.000380384
0.000269276
0.000153651
0.000729742
0.000644327
0.000517624
0.000361799
0.000190887
0.00127128
0.00107343
0.000823403
0.000561812
0.000297509
0.00179039
0.00154595
0.00119576
0.00082481
0.000466271
0.00221503
0.00196556
0.001558
0.00110209
0.000672979
0.00256615
0.0023233
0.00188322
0.00136566
0.000902002
0.00285118
0.00261663
0.00216105
0.0016011
0.00114844
0.00306913
0.00283794
0.0023806
0.00179749
0.00140847
0.00321377
0.00298302
0.00253597
0.00194944
0.00167956
0.00328485
0.00305085
0.00262297
0.00205355
0.00195822
0.00330172
0.00306227
0.00265327
0.00211557
0.00224165
0.00328052
0.00303398
0.00263966
0.00214396
0.00252656
0.00323977
0.00298202
0.0025961
0.00214849
0.00280863
0.00319471
0.00291969
0.00253308
0.00213813
0.00308281
0.0031581
0.00285794
0.00246396
0.00212021
0.00334401
0.00313957
0.00280433
0.0023985
0.00209988
0.00358777
0.00276368
0.00233991
0.00208015
0.00381074
0.00273914
0.00229009
0.00206252
0.00401099
0.00273264
0.00224961
0.00204748
0.00418776
0.00274497
0.00221816
0.00203479
0.00434077
0.00277623
0.00219507
0.00202383
0.00446944
0.00282819
0.00217955
0.00201365
0.00457228
0.00290331
0.00217106
0.00200322
0.00464653
0.00302246
0.00217117
0.00199155
0.00468845
0.0032003
0.00218171
0.00197767
0.00469385
0.0034456
0.00220565
0.00196082
0.00465927
0.0037416
0.00227413
0.00194268
0.00458452
0.00407904
0.00241087
0.001927
0.00447449
0.00447077
0.00265362
0.001922
0.00434081
0.00492551
0.00313213
0.00194301
0.00420299
0.0054391
0.00385488
0.00201749
0.0040856
0.00596168
0.00465923
0.00220611
0.00401573
0.00639961
0.00539205
0.00257683
0.00401267
0.00664974
0.00589521
0.00319039
0.00405837
0.00664064
0.00604323
0.00372181
0.00404658
0.00634118
0.00573658
0.00374175
0.00384104
0.00556253
0.00484249
0.00334375
0.00338577
0.00448286
0.00382738
0.00285627
0.00272425
0.00392653
0.00328522
0.00258849
0.00268051
0.000694355
0.000483745
0.000303098
0.000160875
0.000157668
0.000705703
0.000574932
0.000452747
0.000340916
0.000240594
0.000659523
0.000559193
0.000460492
0.000354789
0.000258157
0.000929479
0.000802226
0.000636289
0.000456465
0.000305151
0.00160002
0.00133904
0.00100339
0.000674063
0.000407377
0.00215796
0.00186927
0.00142487
0.000952282
0.000570486
0.00259198
0.00232152
0.00182091
0.00124031
0.000780036
0.00293978
0.00269712
0.00217195
0.00151302
0.00102062
0.0032122
0.00299473
0.00246919
0.00175765
0.00128439
0.00341175
0.00320742
0.00269991
0.00196191
0.00156591
0.00353474
0.00333444
0.00285755
0.00211885
0.00186207
0.00358394
0.00337888
0.00293801
0.00222275
0.00216882
0.00358193
0.00337066
0.00295709
0.00227984
0.00248259
0.00354685
0.00332868
0.00292943
0.00229906
0.00279923
0.00350146
0.00327065
0.00287294
0.00229099
0.00311325
0.00346428
0.0032108
0.00280053
0.00226571
0.00341822
0.00345126
0.00316205
0.00271943
0.00223164
0.00370748
0.00347259
0.00313296
0.00263578
0.0021951
0.00397539
0.00353501
0.0031293
0.00256226
0.00216036
0.00421825
0.0031547
0.00250471
0.00212978
0.00443405
0.00321393
0.00246412
0.00210421
0.00462183
0.00331202
0.00244142
0.00208355
0.00478084
0.00345094
0.00244096
0.00206731
0.00490984
0.00363413
0.00246716
0.00205477
0.00500659
0.00386316
0.00252642
0.00204513
0.00506769
0.0041355
0.00262797
0.00203788
0.00508913
0.00444826
0.00278394
0.00203425
0.0050672
0.0048009
0.00300964
0.0020424
0.00500082
0.00519591
0.00336565
0.00207139
0.00489564
0.0056356
0.00390311
0.00213967
0.00476614
0.00611921
0.00462292
0.00227843
0.00463626
0.00661821
0.00540454
0.00253997
0.00453867
0.00709015
0.00618564
0.00301021
0.00451785
0.00748507
0.00689042
0.00395834
0.00462389
0.00775308
0.00744001
0.00518289
0.00482089
0.00785931
0.00776365
0.00620718
0.00498647
0.00779853
0.00780296
0.00668885
0.00503639
0.00760377
0.00749832
0.00646499
0.00485962
0.00698604
0.00650771
0.00519256
0.00439112
0.00536788
0.00477208
0.00385729
0.00367533
0.00489711
0.00416742
0.0034764
0.00367921
0.000866969
0.000631305
0.000418723
0.000240013
0.000237018
0.000772412
0.000647633
0.000532276
0.000430656
0.000334284
0.000788394
0.000672619
0.000563844
0.000460972
0.000372804
0.00129784
0.00108223
0.00083815
0.000611865
0.000460418
0.00203903
0.00171857
0.00128219
0.000869986
0.000603075
0.00259188
0.00228012
0.0017465
0.00116874
0.000790249
0.00301042
0.00274666
0.00217024
0.00146563
0.00101068
0.0033397
0.00312656
0.00254495
0.0017454
0.00125711
0.00359114
0.00341543
0.00286056
0.00199907
0.00152639
0.00377159
0.00360854
0.00310044
0.00220921
0.00181466
0.00388086
0.00370953
0.00325744
0.00236646
0.00211975
0.00391884
0.00372821
0.00332933
0.00246415
0.0024379
0.00390925
0.00370163
0.00333506
0.00251412
0.00276576
0.00387193
0.00365126
0.00329318
0.0025285
0.0030974
0.00383644
0.00359939
0.0032286
0.0025134
0.00342386
0.00382472
0.00356046
0.00315711
0.00247828
0.00373833
0.00385495
0.00354752
0.00309045
0.00243228
0.00403477
0.00393703
0.00356988
0.00303645
0.00238249
0.00430805
0.00407709
0.00363577
0.00299632
0.00233392
0.00455409
0.00427572
0.00375049
0.0029752
0.0022905
0.00476994
0.00391823
0.00298166
0.00225529
0.0049533
0.00414114
0.00302493
0.00223036
0.00510202
0.00441963
0.00311709
0.00221728
0.00521389
0.00475123
0.00327375
0.00221764
0.00528676
0.00512842
0.00351252
0.00223385
0.00531909
0.00553622
0.00385102
0.0022708
0.00531064
0.00596443
0.0043058
0.00234093
0.00526061
0.00640912
0.00488731
0.00246789
0.0051716
0.00685836
0.00555076
0.00268004
0.00506315
0.00729113
0.00623787
0.00302997
0.00496554
0.00769788
0.00692531
0.00359844
0.00492251
0.00805886
0.00758133
0.00462719
0.00499113
0.00835321
0.00816658
0.00601075
0.00516755
0.00856013
0.00862821
0.00724941
0.00536404
0.00867256
0.00894275
0.00811083
0.00554865
0.00870146
0.00911484
0.00861381
0.00566356
0.00867519
0.00913614
0.00877089
0.00568316
0.00867426
0.00897541
0.00845764
0.00554341
0.00856722
0.00834249
0.00728802
0.00517229
0.00651914
0.00594272
0.0050061
0.00454324
0.00602105
0.00516696
0.00444714
0.00470814
0.000997372
0.00076125
0.000535186
0.000329756
0.000325543
0.000823571
0.000710285
0.000605795
0.000516385
0.000428881
0.000973959
0.000841104
0.00070733
0.000590833
0.000498423
0.00179357
0.00147395
0.00112284
0.000819299
0.000635261
0.00253211
0.00217179
0.00163934
0.00112568
0.000827769
0.00305104
0.00274296
0.0021353
0.00144658
0.00105453
0.00343819
0.0032095
0.00258561
0.0017576
0.00130346
0.00374062
0.00357961
0.00298665
0.0020567
0.0015705
0.00397154
0.00384505
0.00332089
0.00232718
0.00185398
0.00414363
0.00400745
0.00356745
0.0025532
0.00215155
0.00425822
0.00407692
0.00371599
0.00272741
0.00246249
0.00430695
0.00408198
0.00375833
0.00285092
0.00278316
0.00430505
0.00406047
0.00374229
0.00291276
0.0031076
0.0042809
0.00402922
0.00369617
0.00291791
0.0034274
0.00427514
0.00401258
0.00364496
0.00288342
0.00373589
0.00431226
0.00402506
0.00360387
0.00282965
0.00402854
0.00440979
0.00408163
0.0035862
0.00277117
0.00430162
0.00457355
0.00419177
0.00360144
0.00271315
0.00455155
0.00480514
0.00436391
0.00365821
0.00266073
0.00477508
0.00509856
0.00459955
0.00376411
0.00261978
0.00496936
0.00544428
0.00489876
0.00392832
0.0025955
0.00513153
0.00525631
0.00416041
0.00259329
0.00525865
0.00566462
0.00447028
0.00261989
0.0053483
0.006112
0.00486509
0.0026848
0.00539944
0.00657968
0.00534042
0.00280214
0.00541351
0.00703631
0.00587644
0.00299411
0.005395
0.00746926
0.00645171
0.00330124
0.00534598
0.00787432
0.00705061
0.00376768
0.00529032
0.00824186
0.00765213
0.00446876
0.00526692
0.00856063
0.0082197
0.00555304
0.0053171
0.00883487
0.00874139
0.00687447
0.0054273
0.009047
0.00917317
0.0079669
0.00554687
0.00919536
0.00951189
0.00874329
0.00565182
0.00929305
0.00979535
0.00933133
0.00571115
0.00935212
0.0100434
0.00983512
0.00574976
0.00938821
0.0102448
0.0102803
0.00582722
0.00944183
0.0103675
0.0105566
0.00606495
0.00963528
0.0104024
0.010425
0.00613573
0.0101301
0.0102987
0.00946434
0.00579386
0.00866936
0.00797828
0.00648384
0.00526583
0.00739336
0.00636546
0.00548659
0.00567463
0.00108225
0.000867997
0.00064917
0.000431996
0.000430954
0.00087059
0.000774904
0.00068361
0.000604388
0.00053229
0.00126696
0.00110657
0.000919637
0.000758954
0.000647058
0.0023321
0.00194762
0.00147937
0.00107187
0.000833689
0.00303732
0.00266747
0.00205343
0.00142261
0.00106907
0.00350939
0.00323533
0.00257727
0.00176771
0.00133022
0.00385737
0.00368869
0.00305846
0.00210522
0.00160838
0.00413339
0.00403174
0.0034871
0.00243329
0.00190073
0.0043583
0.0042574
0.0038329
0.00273656
0.00220658
0.00454363
0.00438554
0.00406664
0.00299566
0.00252258
0.00468646
0.00444583
0.00417248
0.00320841
0.00284567
0.00476503
0.00446455
0.00418981
0.00334557
0.00316732
0.00478234
0.00447265
0.00417464
0.00341012
0.00347894
0.0047861
0.00448512
0.00415101
0.00342351
0.00377207
0.00482814
0.00452945
0.00414495
0.0034098
0.00404274
0.00493089
0.00461789
0.00417018
0.00337879
0.00429025
0.00510391
0.00476425
0.00424126
0.00333786
0.00451543
0.00534502
0.00497487
0.00436805
0.0032973
0.00471955
0.00564919
0.00525615
0.00456042
0.00326869
0.00490308
0.00600325
0.00559793
0.00482032
0.00327701
0.00506495
0.00639283
0.00599227
0.00514974
0.00332633
0.00520184
0.00679202
0.00642439
0.0055465
0.00342728
0.00531029
0.00688005
0.006007
0.00359821
0.00538869
0.00734378
0.00652531
0.00386617
0.00543925
0.00779722
0.00707725
0.00426504
0.00546918
0.00820732
0.00763397
0.00484681
0.00549039
0.00857901
0.00817735
0.00567682
0.0055213
0.00891291
0.00869901
0.00670893
0.00557004
0.00919975
0.00917186
0.00775512
0.00562884
0.00943135
0.00955305
0.00852248
0.00567207
0.00962128
0.00989098
0.00911655
0.0056775
0.009776
0.0102272
0.00966318
0.00563104
0.00988992
0.0105682
0.0102392
0.00556785
0.00996072
0.0109063
0.0109017
0.00562392
0.0099953
0.0112131
0.0116365
0.00629198
0.0100269
0.0114618
0.0123699
0.00769842
0.0101363
0.0116481
0.0129074
0.00918835
0.0104903
0.0118244
0.0129498
0.00974155
0.0113547
0.0121576
0.0121554
0.00805775
0.0115589
0.0111268
0.00934302
0.00620519
0.00885902
0.00772259
0.0066671
0.00657128
0.00114897
0.000970004
0.000772787
0.000555808
0.000560489
0.000949503
0.000873643
0.00078999
0.000709982
0.000655084
0.00174178
0.00151286
0.00122509
0.000977357
0.000827421
0.00289756
0.00247592
0.00189313
0.00136269
0.00105803
0.0035376
0.00318861
0.00250694
0.0017505
0.00132468
0.00395326
0.00374192
0.00306685
0.00212659
0.00160898
0.00426114
0.00416443
0.00358478
0.00250601
0.00190763
0.00452769
0.00445979
0.00403397
0.00288296
0.0022205
0.00476969
0.00464386
0.00436222
0.00323743
0.00254791
0.00498928
0.00476484
0.00454071
0.00354781
0.00288299
0.00518439
0.0048417
0.00460772
0.00378025
0.00321381
0.0053103
0.00490188
0.00462104
0.00390324
0.00352877
0.00535511
0.00496279
0.00463442
0.0039544
0.00381686
0.0054004
0.00504125
0.00466477
0.00397243
0.0040709
0.00550179
0.00516524
0.00473589
0.00399046
0.00429042
0.00567337
0.0053385
0.00485378
0.00402752
0.00448041
0.00590806
0.00556865
0.00503048
0.00409783
0.00464822
0.00619581
0.00585623
0.0052718
0.00421108
0.00480131
0.00652828
0.00620711
0.00558575
0.00437168
0.00494432
0.00688675
0.00659423
0.00595981
0.00456599
0.00507749
0.00725721
0.00700935
0.00638791
0.00481833
0.00519928
0.00762659
0.00743885
0.00685836
0.00515133
0.00530763
0.00798388
0.00787001
0.00736058
0.00559241
0.00540222
0.00829066
0.00788858
0.00616464
0.00548546
0.0086845
0.00839998
0.00685601
0.00555944
0.00904622
0.00887548
0.00757459
0.00561902
0.00937578
0.00930822
0.00818569
0.00565212
0.00967555
0.00971392
0.00873805
0.00565024
0.0099457
0.0101105
0.00926803
0.00559935
0.0101849
0.0105182
0.00982335
0.00548861
0.0103861
0.0109499
0.010448
0.0053562
0.0105344
0.011398
0.0112218
0.00537215
0.0106116
0.0118247
0.0121531
0.0061922
0.0106154
0.0121907
0.0132186
0.00816973
0.0105719
0.0124628
0.0142651
0.0107623
0.0105517
0.012644
0.0151121
0.0134232
0.0106833
0.0128026
0.0156487
0.0155479
0.0111657
0.0130775
0.0157268
0.0161285
0.0122409
0.0136845
0.0151098
0.0134301
0.0134719
0.0138961
0.0125798
0.00750974
0.00981985
0.00868151
0.00764631
0.00736089
0.001232
0.00109415
0.000923799
0.000711869
0.000721868
0.00113281
0.00106156
0.000959371
0.000850904
0.000807653
0.00239199
0.00204349
0.00161179
0.00123909
0.00103949
0.00346473
0.00302693
0.00234546
0.00168058
0.00130449
0.0040183
0.00372033
0.00299695
0.00210535
0.00159021
0.00437285
0.00424391
0.00360259
0.00252615
0.00188578
0.00465955
0.00461057
0.00415479
0.00296879
0.00219515
0.00494016