/*--------------------------------*- C++ -*----------------------------------*\
| =========                 |                                                 |
| \\      /  F ield         | OpenFOAM: The Open Source CFD Toolbox           |
|  \\    /   O peration     | Version:  2.3.1                                 |
|   \\  /    A nd           | Web:      www.OpenFOAM.org                      |
|    \\/     M anipulation  |                                                 |
\*---------------------------------------------------------------------------*/
FoamFile
{
    version     2.0;
    format      ascii;
    class       volScalarField;
    location    "600";
    object      nut;
}
// * * * * * * * * * * * * * * * * * * * * * * * * * * * * * * * * * * * * * //

dimensions      [0 2 -1 0 0 0 0];

internalField   nonuniform List<scalar> 
6852
(
0.00413905
0.00347332
0.00269866
0.00204972
0.00280016
0.00224028
0.0020194
0.00170537
0.00130846
0.00212927
0.00236632
0.00222716
0.00196642
0.00158787
0.00257465
0.00235933
0.0022971
0.00208902
0.00173347
0.00290834
0.00230486
0.00231185
0.00216163
0.00184788
0.00322166
0.00241288
0.00242418
0.00228357
0.0019846
0.00355324
0.00255444
0.00256018
0.00241901
0.00212691
0.00388748
0.00270229
0.0025549
0.00226553
0.00420973
0.00284371
0.00268511
0.00239512
0.00450823
0.00297697
0.00280315
0.00251027
0.00477112
0.00309441
0.00290269
0.00260579
0.00498702
0.00318639
0.0029766
0.00267643
0.00514557
0.00324434
0.00301937
0.0027183
0.00523948
0.00326217
0.00302809
0.00272951
0.00526589
0.003238
0.00300293
0.00271032
0.00522671
0.00317433
0.00294687
0.0026628
0.00512818
0.00307715
0.0028648
0.00259024
0.00497981
0.0029544
0.00276241
0.00249548
0.00479546
0.00281445
0.00264481
0.00238267
0.00458571
0.00266461
0.00251266
0.00226117
0.00435764
0.00250844
0.0023739
0.00213286
0.00411916
0.00235359
0.00223098
0.00199977
0.00387019
0.00220147
0.00208491
0.00186341
0.00361033
0.00205154
0.00193656
0.0017247
0.00334019
0.00190303
0.00178656
0.00158413
0.003061
0.00175519
0.0016355
0.00144272
0.0027743
0.00160775
0.00148469
0.00130391
0.00248146
0.00146152
0.00133621
0.00116982
0.00218446
0.00131972
0.00119526
0.0010431
0.00189372
0.00118915
0.00107145
0.000929438
0.0016398
0.00108192
0.000972818
0.000840436
0.00149362
0.0010051
0.000901329
0.000777488
0.00140543
0.000952566
0.000851874
0.000738794
0.00137423
0.000911518
0.000814439
0.00072015
0.00138044
0.00086962
0.000779605
0.000705492
0.00138811
0.000821347
0.000744731
0.000684687
0.00137577
0.000774912
0.000710033
0.00065544
0.00134064
0.00073614
0.000682063
0.000626065
0.0012883
0.000718763
0.000667576
0.0006082
0.00122994
0.000729492
0.000677467
0.000611603
0.00118484
0.00157389
0.00148529
0.00132907
0.00180048
0.00193304
0.00162788
0.00125279
0.000916131
0.00180489
0.00170281
0.00170277
0.00162032
0.00147177
0.00103015
0.0014129
0.00149095
0.00152236
0.00148233
0.00117117
0.00131648
0.00135641
0.00143489
0.00146739
0.00125784
0.00137684
0.00131727
0.00138645
0.00146124
0.00135964
0.00153782
0.00137264
0.00139795
0.00148117
0.00148128
0.00165131
0.00144032
0.00143872
0.00152116
0.00161485
0.00171811
0.00149984
0.00149052
0.001573
0.00175242
0.00154984
0.00154556
0.0016305
0.00188816
0.00159254
0.00160049
0.00168946
0.00201712
0.0016311
0.00165394
0.0017471
0.00213471
0.00167002
0.00170527
0.00180136
0.00223658
0.0017116
0.00175318
0.00185048
0.00231895
0.00175472
0.00179562
0.00189304
0.00237919
0.00179569
0.00183036
0.00192809
0.00241604
0.00183035
0.00185575
0.00195544
0.00242957
0.00185562
0.00187121
0.00197572
0.00242086
0.00187024
0.00187736
0.0019903
0.00239177
0.00187453
0.00187575
0.0020011
0.00234416
0.00187002
0.00186877
0.00201023
0.00227956
0.00185899
0.00185911
0.00202003
0.00219725
0.00184406
0.00184976
0.00202784
0.00209665
0.00182801
0.00184373
0.00203365
0.00198285
0.00181365
0.00184609
0.00203549
0.00186019
0.00180447
0.00185919
0.00203337
0.00173269
0.00180508
0.00188292
0.0020275
0.00160287
0.00181916
0.00191654
0.00201503
0.00147044
0.00184987
0.00195882
0.00199612
0.00133462
0.00189911
0.00200493
0.00197024
0.00119457
0.00196702
0.00204745
0.00193585
0.00104981
0.00204343
0.00208227
0.00189009
0.000901271
0.00211789
0.00210404
0.00183131
0.000754483
0.0021824
0.00211087
0.00177693
0.000666727
0.00223054
0.00211086
0.00173904
0.000652539
0.00226551
0.00211289
0.00172152
0.000661843
0.00228901
0.00211183
0.00169572
0.000660142
0.00229373
0.00208761
0.00161215
0.00063952
0.00226703
0.00202007
0.0014654
0.000608695
0.0021936
0.00187262
0.00119823
0.000579815
0.00190867
0.00139095
0.000933435
0.000567699
0.000803524
0.000747243
0.00066223
0.00121549
0.00193361
0.00163245
0.00126247
0.000905893
0.00181555
0.00156331
0.00159217
0.00154951
0.00146232
0.00102652
0.00135007
0.00140331
0.00145068
0.00146201
0.00113315
0.00133737
0.00132729
0.00137156
0.00142768
0.00121061
0.00134713
0.00132323
0.00133257
0.00139977
0.00130765
0.00139645
0.00136586
0.00132605
0.00138594
0.00142515
0.00149329
0.0014229
0.00133397
0.00138591
0.00155688
0.00161558
0.00147592
0.00134691
0.00139843
0.00169585
0.00172592
0.00151058
0.00136002
0.00142103
0.00183628
0.00151957
0.00137121
0.00145084
0.00197349
0.00150473
0.00138077
0.00148552
0.00210311
0.00147646
0.00139088
0.00152343
0.00222075
0.00144878
0.00140409
0.00156323
0.00232221
0.00143068
0.00142133
0.00160345
0.00240407
0.0014249
0.00144186
0.00164259
0.00246404
0.00142958
0.00146405
0.0016793
0.002501
0.00144112
0.00148617
0.00171269
0.00251488
0.0014559
0.00150696
0.00174248
0.00250641
0.0014712
0.00152578
0.00176899
0.0024768
0.00148534
0.00154273
0.00179158
0.00242675
0.00149764
0.00155831
0.00180783
0.00235693
0.00150807
0.00157343
0.00182019
0.00227153
0.00151721
0.00159031
0.00182902
0.00217413
0.00152631
0.00161052
0.00183437
0.00206748
0.00153772
0.00163338
0.0018376
0.00195249
0.00155312
0.00165906
0.00183975
0.00182951
0.00157424
0.00168783
0.00184138
0.00169971
0.00160267
0.00172021
0.00184285
0.0015637
0.00163974
0.00175678
0.00184425
0.00142179
0.00168657
0.00179816
0.00184562
0.00127409
0.00174384
0.00184503
0.00184671
0.0011204
0.00181195
0.00189766
0.00184521
0.000960365
0.0018914
0.00195648
0.00183855
0.000796532
0.00198339
0.00202015
0.00183157
0.000644151
0.00208702
0.00209232
0.00185228
0.000623642
0.00219752
0.00217072
0.00188921
0.000643799
0.00230178
0.00223717
0.0019015
0.00064235
0.00237787
0.00225614
0.00184577
0.000619642
0.00240502
0.00219684
0.00159925
0.000592525
0.00223418
0.00186899
0.00117867
0.000582344
0.000852842
0.000785042
0.000693229
0.00125983
0.00188784
0.00158241
0.00121816
0.000867742
0.00175667
0.00155873
0.00155804
0.00148839
0.0013947
0.000997195
0.00144046
0.00147938
0.00149035
0.00146902
0.00110466
0.00142242
0.00144874
0.00146799
0.00147124
0.00119799
0.00141276
0.00144537
0.00145085
0.00145179
0.00131198
0.00140947
0.00145969
0.0014409
0.00142676
0.00144711
0.00142358
0.00148483
0.00143188
0.00140332
0.00159724
0.00145588
0.00151533
0.00141915
0.00138682
0.00175378
0.00150187
0.00154374
0.00140148
0.00137346
0.00190507
0.00155889
0.00156037
0.00138022
0.0013733
0.00204854
0.00155403
0.00136045
0.00138593
0.00218051
0.00152587
0.0013472
0.00140825
0.002297
0.00148715
0.00134205
0.00143695
0.0023943
0.00144927
0.00134517
0.00146897
0.00246961
0.00141966
0.00135544
0.00150173
0.00252124
0.00140103
0.00137101
0.0015333
0.00254867
0.0013928
0.00138985
0.00156249
0.0025524
0.00139287
0.00141023
0.00158877
0.00253376
0.00139884
0.00143088
0.00161218
0.00249459
0.00140861
0.00145107
0.00163309
0.00243699
0.00142065
0.00147049
0.00165196
0.00236326
0.00143396
0.00148923
0.00166935
0.002276
0.00144803
0.00150782
0.00168565
0.0021776
0.00146281
0.001527
0.0017011
0.00207003
0.00147869
0.00154749
0.00171605
0.00195469
0.00149625
0.00157011
0.00173087
0.00183245
0.00151634
0.00159577
0.00174586
0.00170353
0.00154
0.00162543
0.00176121
0.00156715
0.00156848
0.00165997
0.00177677
0.00142425
0.00160315
0.00170005
0.0017919
0.00127581
0.00164544
0.0017459
0.00180537
0.0011232
0.00169653
0.00179712
0.00181512
0.000967964
0.00175729
0.00185276
0.00181939
0.000811244
0.00182825
0.00191192
0.00181858
0.000663444
0.00191104
0.0019801
0.00184156
0.000597299
0.00200815
0.00206195
0.00188883
0.000626786
0.00211721
0.00214844
0.00192874
0.000635166
0.00222329
0.00220521
0.00190026
0.000619789
0.00230649
0.00218994
0.00169041
0.000597549
0.00222491
0.00193147
0.00128451
0.000586697
0.000863713
0.000797646
0.000703634
0.00127062
0.00172544
0.00141198
0.00105083
0.000781764
0.00160173
0.00165256
0.00156285
0.0014116
0.00128979
0.00091863
0.00162743
0.00159214
0.00151455
0.00143527
0.00104488
0.00161468
0.00159647
0.00154752
0.00148557
0.0011683
0.0015981
0.00158965
0.00155079
0.00147394
0.00130847
0.00158736
0.00157484
0.00153244
0.00142045
0.00145795
0.0015746
0.00155017
0.00149556
0.00136716
0.00161326
0.00154674
0.00151675
0.00144736
0.00133754
0.00176907
0.00150841
0.00147831
0.00140104
0.00133566
0.00191863
0.00146644
0.00144106
0.00136735
0.00135724
0.00205703
0.00142851
0.00141075
0.00135067
0.00139485
0.00218003
0.00139087
0.00135023
0.00144162
0.00228378
0.00138186
0.00136261
0.00149207
0.00236522
0.00138236
0.00138381
0.00154218
0.0024224
0.00139007
0.00141025
0.00158928
0.00245462
0.00140265
0.00143917
0.00163188
0.00246232
0.00141808
0.00146862
0.00166938
0.00244689
0.00143489
0.00149741
0.00170188
0.00241035
0.00145204
0.00152494
0.00172991
0.0023551
0.00146897
0.00155108
0.00175424
0.00228362
0.0014855
0.00157604
0.0017757
0.00219831
0.00150181
0.00160029
0.00179506
0.00210138
0.00151841
0.00162447
0.0018129
0.00199478
0.00153606
0.00164938
0.00182957
0.0018801
0.00155572
0.00167582
0.00184523
0.00175851
0.00157853
0.00170456
0.00185973
0.00163081
0.00160564
0.00173626
0.00187275
0.00149731
0.0016382
0.00177136
0.00188353
0.00135968
0.0016772
0.00180984
0.00189076
0.00121753
0.00172319
0.00185098
0.00189231
0.00107127
0.00177602
0.00189309
0.00188574
0.000924008
0.00183439
0.00193322
0.00186748
0.000780085
0.00189566
0.00196795
0.0018381
0.000638073
0.0019568
0.00199756
0.00181742
0.000609798
0.00201611
0.00202622
0.00181483
0.000627685
0.00207258
0.00205643
0.00182307
0.000641079
0.00212218
0.00208026
0.00181586
0.00063629
0.00215409
0.00206746
0.00169226
0.000616644
0.00215768
0.00198445
0.00137468
0.000589268
0.00198813
0.00167238
0.00108814
0.000580806
0.000826546
0.000770173
0.000686619
0.00124911
0.00313056
0.00247118
0.00188623
0.00152244
0.0022548
0.00151906
0.00125542
0.000996265
0.000844668
0.00171461
0.00160377
0.00132299
0.00109724
0.000970082
0.0020369
0.00168725
0.00141246
0.00120468
0.00109485
0.00236942
0.0017858
0.00151665
0.00132017
0.00122689
0.00271759
0.00189008
0.00162926
0.00144338
0.00136653
0.00306818
0.00199797
0.00174835
0.00157207
0.00150895
0.00341043
0.00210976
0.00187077
0.00170178
0.00164839
0.00373459
0.00222372
0.0019924
0.00182748
0.00177978
0.00403141
0.00233516
0.00210794
0.00194426
0.00189898
0.00429298
0.00243692
0.00221165
0.00204783
0.00200268
0.00451255
0.0025194
0.00229792
0.00213473
0.00208831
0.00468459
0.00236307
0.0022029
0.00215432
0.00480555
0.00240736
0.0022525
0.00220058
0.00487467
0.00243317
0.00228509
0.00222811
0.00489363
0.00244378
0.00230288
0.0022386
0.00486595
0.0024425
0.00230814
0.00223393
0.00479631
0.00243196
0.00230282
0.00221597
0.00468995
0.00241397
0.00228831
0.00218626
0.00455202
0.00238944
0.00226538
0.00214598
0.00438721
0.00235857
0.00223428
0.00209588
0.00419949
0.002321
0.00219481
0.00203637
0.00399208
0.00227604
0.00214645
0.00196754
0.00376737
0.0022228
0.00208847
0.00188921
0.00352692
0.00216037
0.00202009
0.00180106
0.00327151
0.00208786
0.00194053
0.00170273
0.00300128
0.0020045
0.00184912
0.00159397
0.0027174
0.00190976
0.00174545
0.00147455
0.00241777
0.00180342
0.00162943
0.00134448
0.00209893
0.0016857
0.00150167
0.00120469
0.00176299
0.00155764
0.00136424
0.0010602
0.00148585
0.00142152
0.00122137
0.000920555
0.00135143
0.00128121
0.00107905
0.000793396
0.00127734
0.00114262
0.000945761
0.000687628
0.00126222
0.00101371
0.000834823
0.000636178
0.00127913
0.000899668
0.000748362
0.00063527
0.00129455
0.000797223
0.000662839
0.000626686
0.00128649
0.000710713
0.000626246
0.000606713
0.00125723
0.000668412
0.000646309
0.000604358
0.0012239
0.000729095
0.000690674
0.000627414
0.00120585
0.0016118
0.00153841
0.0013827
0.00185713
0.000385786
0.000338872
0.000286558
0.000238146
0.000331888
0.000228919
0.000205204
0.000175545
0.000143552
0.000266219
0.000279609
0.0002574
0.000225716
0.000187357
0.000340741
0.000319283
0.00030081
0.000270003
0.000228059
0.000412841
0.000350297
0.00033643
0.000308134
0.000264528
0.000477216
0.000379412
0.000368064
0.000341766
0.000296971
0.000532656
0.000407068
0.000398851
0.000373494
0.000327217
0.000584241
0.000433706
0.000429378
0.000407318
0.000362234
0.000649277
0.000463502
0.000461654
0.000440857
0.000395861
0.000720681
0.000490682
0.00049093
0.000472555
0.000429577
0.00079718
0.000519268
0.000520941
0.00050507
0.000464422
0.000877529
0.000546672
0.000550199
0.000537604
0.000499576
0.000958996
0.000573153
0.000579161
0.000570341
0.000534696
0.00103948
0.00059913
0.000608071
0.000602625
0.000569093
0.00111686
0.000624737
0.000636935
0.000634123
0.000602127
0.00118927
0.000665604
0.000664433
0.000633183
0.00125519
0.00069391
0.000693161
0.000661725
0.00131357
0.000721179
0.000719814
0.000687303
0.0013638
0.00074599
0.000743776
0.000709579
0.00140575
0.000768608
0.000764891
0.000728443
0.00143967
0.000789033
0.000783129
0.00074393
0.00146603
0.000807154
0.000798464
0.000756113
0.00148528
0.000822731
0.000810802
0.000765028
0.00149773
0.000835304
0.000819928
0.000770618
0.00150343
0.000844487
0.000825558
0.000772737
0.00150224
0.000849784
0.000827331
0.000771174
0.00149384
0.000850585
0.000824835
0.000765696
0.00147799
0.000846259
0.000817683
0.000756139
0.00145461
0.000836277
0.000805636
0.000742515
0.0014241
0.000820406
0.000788776
0.00072513
0.00138746
0.000798903
0.000767595
0.000704636
0.0013463
0.000772787
0.000743112
0.000682045
0.00130271
0.000744386
0.000716925
0.000658619
0.00125878
0.00071641
0.000691232
0.000635674
0.00121586
0.000695935
0.000668799
0.000614126
0.00117343
0.000687351
0.000651197
0.000593616
0.00112771
0.000686469
0.000635589
0.000570909
0.00107026
0.000677893
0.000611866
0.00053823
0.000987572
0.000642945
0.000566845
0.000486899
0.000873312
0.000564776
0.000485254
0.00041075
0.000748753
0.000979992
0.000852699
0.000764634
0.00108738
0.000185495
0.000159268
0.000130258
0.000105876
0.000196134
0.000357954
0.000310405
0.000254164
0.000193885
0.000110012
0.00045178
0.000399741
0.000329508
0.000254892
0.000142494
0.000642363
0.000568293
0.000456774
0.000343777
0.00017842
0.000893054
0.000827731
0.000653845
0.000471005
0.000213674
0.00115467
0.00108828
0.000903043
0.00064025
0.000247971
0.0013857
0.00132163
0.00113741
0.000805092
0.000284541
0.00155875
0.00148774
0.00128682
0.000915198
0.000318623
0.00167584
0.00160338
0.00139013
0.000984758
0.000352945
0.00175606
0.00167909
0.00145494
0.0010205
0.000387298
0.00180378
0.00171738
0.00148384
0.00102778
0.000421481
0.0018296
0.00172364
0.00148016
0.00101168
0.000455083
0.00182998
0.00170193
0.00144217
0.000978604
0.000487806
0.00180596
0.00165619
0.00135936
0.000933321
0.000519241
0.00176208
0.00159319
0.00126439
0.00088535
0.000548939
0.00170415
0.00151964
0.00116977
0.000840733
0.000576441
0.00144155
0.00108262
0.000802465
0.000601347
0.00135551
0.00100581
0.000771348
0.000623384
0.00125351
0.000938961
0.000746777
0.00064244
0.00116085
0.000883645
0.000727886
0.000658566
0.00108641
0.000839982
0.000713767
0.000671913
0.00102867
0.000806594
0.00070352
0.000682652
0.000984918
0.00078166
0.000696298
0.000690907
0.000951614
0.000763276
0.000691312
0.000696705
0.000926785
0.000749811
0.000687845
0.000699965
0.000908754
0.000739906
0.000685251
0.00070051
0.000896152
0.000732457
0.000682953
0.00069812
0.000888323
0.000726655
0.000680451
0.000692605
0.00088543
0.000722094
0.000677382
0.000683905
0.000889416
0.000718947
0.000673602
0.000672201
0.000905082
0.000718278
0.000669296
0.000657973
0.000943339
0.000722743
0.000665155
0.000642006
0.0010308
0.000738836
0.000662842
0.000625258
0.00116604
0.000774611
0.000664894
0.000608586
0.00130731
0.000841615
0.000674107
0.000592235
0.00140938
0.000943767
0.00069145
0.000574961
0.00145174
0.00103908
0.000710376
0.000553045
0.00143942
0.00107469
0.000720492
0.000519723
0.00137432
0.00104646
0.000723171
0.000469483
0.00120863
0.000973406
0.000697785
0.000407882
0.000549851
0.000487718
0.000417754
0.000802294
0.000210068
0.000174116
0.000134915
0.000103837
0.000186734
0.000418728
0.000374789
0.000318489
0.000246281
0.000101845
0.000492491
0.000471069
0.00040785
0.000308491
0.000119656
0.000783109
0.000738886
0.000613221
0.000437872
0.000154614
0.00114022
0.00111171
0.000936339
0.000652984
0.000199319
0.00149275
0.00145039
0.00126364
0.000889867
0.000244192
0.00176937
0.00173234
0.00153039
0.00109566
0.000287406
0.00197227
0.00194729
0.00173754
0.0012515
0.000327847
0.00211402
0.0021012
0.00189009
0.00135937
0.000366629
0.0022101
0.00220336
0.00199334
0.00142337
0.000403809
0.00227023
0.00226202
0.00205335
0.00144866
0.000439478
0.0023104
0.00228658
0.00207611
0.00143978
0.000473555
0.00232665
0.00228367
0.00206813
0.00140393
0.000506063
0.00232169
0.00225965
0.00203333
0.00134783
0.00053693
0.00230088
0.00222043
0.001966
0.00127858
0.000565974
0.00227072
0.00217194
0.00187748
0.00120419
0.000592959
0.00223722
0.00211913
0.00177853
0.00113139
0.000617641
0.00206522
0.00167643
0.00106457
0.000639827
0.00200956
0.0015762
0.00100579
0.000659434
0.00194889
0.00148147
0.000955594
0.000676491
0.00188046
0.00139453
0.000913531
0.000691117
0.00181279
0.00131726
0.000878686
0.000703459
0.00175161
0.00125039
0.000849973
0.000713625
0.00169763
0.0011934
0.000826306
0.000721627
0.0016509
0.00114523
0.000806699
0.000727357
0.00161176
0.00110487
0.000790335
0.000730595
0.00158103
0.00107167
0.000776578
0.00073106
0.00156048
0.00104559
0.000764961
0.000728483
0.00155269
0.0010281
0.000755368
0.00072273
0.00157192
0.00102265
0.000748126
0.000713962
0.00162647
0.00103358
0.000744051
0.000702693
0.00169488
0.00106441
0.000744718
0.000689785
0.00173766
0.00113214
0.000754163
0.000676496
0.00175925
0.00123548
0.000776482
0.000664238
0.00176932
0.00133476
0.000808026
0.000653598
0.00176351
0.00140923
0.000849577
0.000643477
0.00173088
0.00143585
0.000899875
0.000629757
0.00167121
0.00141133
0.000938408
0.00060347
0.00159539
0.00134321
0.000940464
0.000556221
0.00144465
0.00122873
0.000909413
0.000489263
0.000625949
0.000565912
0.000487074
0.000968139
0.000251271
0.000206596
0.000159867
0.000113418
0.000215325
0.000444209
0.000404974
0.000357064
0.000292939
0.000134482
0.000458629
0.000474754
0.000448293
0.000367001
0.000137481
0.000784066
0.000783344
0.000697056
0.000522419
0.000154641
0.00127141
0.00121876
0.00105441
0.00075875
0.000194171
0.00168895
0.00162058
0.00140579
0.00100712
0.000243144
0.00199186
0.00193662
0.00169977
0.00122117
0.000291875
0.0021973
0.00216244
0.00192475
0.00138525
0.000337708
0.00232768
0.00231095
0.00208378
0.00149895
0.000380924
0.0024042
0.00239736
0.0021849
0.00156592
0.000421758
0.00243868
0.00243429
0.00223768
0.00159196
0.000460495
0.00244736
0.00243399
0.002251
0.00158224
0.000497175
0.00243179
0.00240758
0.0022353
0.00154494
0.000531899
0.0023986
0.00236501
0.00219953
0.0014879
0.000564668
0.00235613
0.00231495
0.00215068
0.00141881
0.00059536
0.00231297
0.0022643
0.00209216
0.00134448
0.000623777
0.00227539
0.00221767
0.00202589
0.00127027
0.000649721
0.00224732
0.00217753
0.00195583
0.00120005
0.000673057
0.00214483
0.00188518
0.00113618
0.000693734
0.00211786
0.00181602
0.00107964
0.000711803
0.00209545
0.00174981
0.00103041
0.000727385
0.00207618
0.00168754
0.000987934
0.000740611
0.00205795
0.00162981
0.000951357
0.000751552
0.00204122
0.00157706
0.000919794
0.000760185
0.00202685
0.00152977
0.000892516
0.000766358
0.00201678
0.00148887
0.000869036
0.000769824
0.00201087
0.00145537
0.000849098
0.000770273
0.00200842
0.00143132
0.00083285
0.00076742
0.00199896
0.00142818
0.000821549
0.000761215
0.00198149
0.00144657
0.000816841
0.000751986
0.0019644
0.00148618
0.000821338
0.000740617
0.00195354
0.00152976
0.000837224
0.000728707
0.00195001
0.00158233
0.000870756
0.000718401
0.00194676
0.0016333
0.000932238
0.000712179
0.00193334
0.00167417
0.00101984
0.000711861
0.00189949
0.00168717
0.00111899
0.000715853
0.00184229
0.00166063
0.00119574
0.000714758
0.0017708
0.00159246
0.00119036
0.000696318
0.00167813
0.00147994
0.00111267
0.0006537
0.00150747
0.0013152
0.00101034
0.000586316
0.000703776
0.0006438
0.000571589
0.00116311
0.000294077
0.000245256
0.000194012
0.000140919
0.000278255
0.000457311
0.00042339
0.00038479
0.000335848
0.000171965
0.000458283
0.00047739
0.000467905
0.000410404
0.00017847
0.000846561
0.000836698
0.000753382
0.000586711
0.000194705
0.0014533
0.00136219
0.00115857
0.000840447
0.000225911
0.00191403
0.0018131
0.00154433
0.00109583
0.00026804
0.00221424
0.00213562
0.00185021
0.00130844
0.000313737
0.00239499
0.00234219
0.00206774
0.00146525
0.000358974
0.00249138
0.00245817
0.00220705
0.0015683
0.000402708
0.00252986
0.00250592
0.00228171
0.00162292
0.000444628
0.00252343
0.00250199
0.00230534
0.00163627
0.000484808
0.00248755
0.00246094
0.00228939
0.00161409
0.000523161
0.00243145
0.00239751
0.00224665
0.00156547
0.000559675
0.00236342
0.00232413
0.00218799
0.00149862
0.00059427
0.00229404
0.00225097
0.00212357
0.00142178
0.000626725
0.0022335
0.00218576
0.0020605
0.00134234
0.000656751
0.00218841
0.00213327
0.00200417
0.00126595
0.00068405
0.00216096
0.0020951
0.00195613
0.00119614
0.000708425
0.00215054
0.00207052
0.00191083
0.00113415
0.000729835
0.0020579
0.0018685
0.00108019
0.000748356
0.00205424
0.00183059
0.00103379
0.000764113
0.00205697
0.00179787
0.000994166
0.00077721
0.00206302
0.00177069
0.000960483
0.000787679
0.00206975
0.0017494
0.000932005
0.000795446
0.00207504
0.00173445
0.000908248
0.000800318
0.00207816
0.00172664
0.00088908
0.00080203
0.00207938
0.00172604
0.000875632
0.000800306
0.00207896
0.00173015
0.000872791
0.000795034
0.0020769
0.00173445
0.000882211
0.000786596
0.00207336
0.00174004
0.0009075
0.000776074
0.0020691
0.00176203
0.000954151
0.000765363
0.00206127
0.00179168
0.0010276
0.000757198
0.00204752
0.00182388
0.00113494
0.000755396
0.00202483
0.00184825
0.00127496
0.000764149
0.0019895
0.0018531
0.0014237
0.000780192
0.00194018
0.00183119
0.00151945
0.000793412
0.00188142
0.00178189
0.00152407
0.000797316
0.00183051
0.00171432
0.00145573
0.000783148
0.00176647
0.00160089
0.0012884
0.000744396
0.00155621
0.00137072
0.00107944
0.000680984
0.000785911
0.000725044
0.000662296
0.00136262
0.000328933
0.000280465
0.000228319
0.000172542
0.00034222
0.000469398
0.000440848
0.00041085
0.000376908
0.000203381
0.000505354
0.000521058
0.000511824
0.000465222
0.000215189
0.00105101
0.000994618
0.000868952
0.000677753
0.00023975
0.00172098
0.00159517
0.00133046
0.000953818
0.000275004
0.00217225
0.00205282
0.00173469
0.00121016
0.000315287
0.00243254
0.00234431
0.00202639
0.00140913
0.000356881
0.00256489
0.002504
0.00221187
0.00154705
0.000398221
0.00261381
0.00256933
0.00231153
0.00162956
0.000438907
0.00260765
0.00256786
0.00234504
0.00166444
0.000478586
0.00256049
0.00251783
0.00232933
0.00166048
0.000517225
0.00249032
0.00243469
0.00227683
0.00162417
0.000554621
0.00240291
0.00233591
0.00219879
0.00156481
0.000590671
0.00230788
0.00223529
0.00210661
0.00148477
0.000625056
0.00222023
0.00214426
0.00201421
0.00139088
0.000657192
0.00215202
0.00207023
0.00193061
0.00129729
0.000686773
0.00210901
0.00201675
0.00186137
0.00121226
0.000713575
0.00209085
0.00198423
0.00180909
0.00113929
0.000737447
0.00209411
0.00197128
0.00177639
0.00107905
0.000758313
0.00211436
0.00197511
0.00176066
0.00103063
0.000776164
0.00199212
0.00175834
0.000992567
0.000791016
0.00201792
0.00176571
0.000963574
0.000802864
0.00204869
0.00177902
0.000942949
0.000811669
0.00208042
0.00179462
0.000930927
0.000817363
0.00210913
0.00180984
0.000928862
0.000819887
0.00213258
0.00182477
0.000939542
0.000819253
0.00214936
0.00184234
0.000964136
0.00081541
0.00215833
0.00186605
0.00100381
0.000808467
0.002157
0.00189232
0.0010647
0.000799901
0.0021449
0.00191671
0.00115285
0.000792089
0.00212496
0.0019387
0.00127473
0.000788578
0.00209753
0.0019527
0.00142172
0.000793978
0.00206299
0.00195307
0.0015738
0.000807798
0.00202203
0.00193412
0.00166817
0.000822923
0.00197644
0.00189759
0.00168248
0.000836881
0.00192975
0.00185409
0.00165667
0.000845433
0.00188686
0.00180969
0.00161195
0.000846843
0.00186766
0.00177204
0.00154899
0.000836328
0.0018698
0.00171887
0.00143204
0.00080782
0.00164508
0.00145458
0.00115855
0.000757086
0.000871394
0.000807267
0.000749003
0.00154137
0.000353187
0.000308377
0.000258523
0.000202685
0.000401945
0.00048676
0.000464386
0.000441844
0.000419248
0.000230887
0.000614749
0.000629012
0.000606365
0.000547795
0.000249398
0.00137218
0.00126123
0.00106975
0.000816157
0.000282161
0.00203629
0.00189016
0.00157208
0.00111197
0.000322577
0.002429
0.00230716
0.00196053
0.00135618
0.000364421
0.00262019
0.0025343
0.00220926
0.00152896
0.00040538
0.00269177
0.00262905
0.00234262
0.00163767
0.000445124
0.00269195
0.00263685
0.00239123
0.00169328
0.000483716
0.00265047
0.00258614
0.00237954
0.00170596
0.000521108
0.00257785
0.00249401
0.00232384
0.00168549
0.000557453
0.00248509
0.00237873
0.00222903
0.00164226
0.000592562
0.00237556
0.00225785
0.00211591
0.00156039
0.000626091
0.00226373
0.002145
0.00200113
0.00146046
0.000657502
0.00217054
0.00205191
0.00189794
0.00136001
0.000686487
0.00210781
0.00198487
0.00181381
0.00126663
0.000712941
0.00207803
0.00194551
0.00175241
0.00118579
0.000736808
0.00207651
0.00193195
0.00171438
0.00111948
0.000758018
0.00209646
0.00194051
0.00169855
0.00106791
0.000776506
0.00213083
0.00196667
0.00170257
0.00103081
0.000792226
0.00217263
0.00200524
0.00172346
0.00100751
0.000805112
0.0020509
0.00175775
0.000997785
0.000815074
0.00209805
0.00180155
0.00100241
0.000822034
0.00214122
0.00185037
0.0010235
0.000825988
0.00217457
0.00189951
0.00106453
0.000827086
0.0021953
0.00194494
0.0011302
0.000825682
0.00220264
0.0019836
0.00121563
0.000821943
0.00219717
0.002014
0.00132481
0.000817632
0.00217797
0.00203154
0.00145822
0.000815773
0.00214742
0.00203327
0.00159607
0.000819567
0.00211094
0.00202151
0.00171838
0.0008279
0.00206936
0.00198957
0.00176247
0.000836854
0.00202686
0.0019463
0.00174471
0.000844621
0.00198908
0.00190698
0.00170995
0.000848946
0.00195736
0.00187778
0.00168139
0.000851732
0.00192956
0.00185665
0.00166477
0.000857397
0.0019063
0.001839
0.00165062
0.000874685
0.0019094
0.00183308
0.0016264
0.000879743
0.00197471
0.00184993
0.00156645
0.000854867
0.00183865
0.00164659
0.00129767
0.00081499
0.000965535
0.000895934
0.000831863
0.00169209
0.00036826
0.000329671
0.000285094
0.00023236
0.000463253
0.000520089
0.00050628
0.000489061
0.00047075
0.000257662
0.000824368
0.000834297
0.000776452
0.000671614
0.000284655
0.00174341
0.00160481
0.00134176
0.000994812
0.00032364
0.00235106
0.00220211
0.00184875
0.00129482
0.000366863
0.00265016
0.00253795
0.00218716
0.00151412
0.000409471
0.00275934
0.0026806
0.00237046
0.00165534
0.00045044
0.00277263
0.00270602
0.00244133
0.00173197
0.000489782
0.00273977
0.00265985
0.00243834
0.00176182
0.000527776
0.0026796
0.00256764
0.00238408
0.00175528
0.000564294
0.00259531
0.00244892
0.00228516
0.00172659
0.000599274
0.00248972
0.0023173
0.00215992
0.00166283
0.000632138
0.00236648
0.00218986
0.00203076
0.00156517
0.000662436
0.00224808
0.00208027
0.00191333
0.00146102
0.000689763
0.00216074
0.00199973
0.00181957
0.00136763
0.000714121
0.00211184
0.00195184
0.00175475
0.00129195
0.000735742
0.00209812
0.00193463
0.00171981
0.00123412
0.00075491
0.00210997
0.00194306
0.00171227
0.00119292
0.000771885
0.00213829
0.00197111
0.00172816
0.00116693
0.000786832
0.00217519
0.0020119
0.00176219
0.00115828
0.000799779
0.00221309
0.0020587
0.00180903
0.00116677
0.000810565
0.00224649
0.00210527
0.00186342
0.00119374
0.000819012
0.0021467
0.0019205
0.0012421
0.00082507
0.00217823
0.00197495
0.00131553
0.000828963
0.00219528
0.00202127
0.00141617
0.000831265
0.00219788
0.00205501
0.0015374
0.000832906
0.00218838
0.00207384
0.0016596
0.000835233
0.00216879
0.00207628
0.00176818
0.000838837
0.00213845
0.00205404
0.0018224
0.000843147
0.00210142
0.00201111
0.00180633
0.000846249
0.00206614
0.00196772
0.00176463
0.000846524
0.00203593
0.00193304
0.00172319
0.000842941
0.00201182
0.00191084
0.00169621
0.000838107
0.00199326
0.00190094
0.00169103
0.000842264
0.00197753
0.00189853
0.00170451
0.000890868
0.00196132
0.00189766
0.00172823
0.000985418
0.00194617
0.00189525
0.00174603
0.00107652
0.00195462
0.00190409
0.00174599
0.00110838
0.00203448
0.00196203
0.00172643
0.00100794
0.00205616
0.00191828
0.00156904
0.000884569
0.00105693
0.000986812
0.000916918
0.00182072
0.000379744
0.000348845
0.000311378
0.000263891
0.000529113
0.000590555
0.000590036
0.000571081
0.000541764
0.000286252
0.00118589
0.00116421
0.00103542
0.000840338
0.000322293
0.00213417
0.0019821
0.00165519
0.00119671
0.000364869
0.00262865
0.00248947
0.00212109
0.00148007
0.000408542
0.00281456
0.00271704
0.00238329
0.00166523
0.000450441
0.00284668
0.00277177
0.00249001
0.00177232
0.000490618
0.00282285
0.00273531
0.00250055
0.00182139
0.000529431
0.00277602
0.00264682
0.00245174
0.00182976
0.000567166
0.00271181
0.00253266
0.00235311
0.0018112
0.000603277
0.00262831
0.00240452
0.00222393
0.0017669
0.000636856
0.00251784
0.00227134
0.00208377
0.00167524
0.000667224
0.00238778
0.00215057
0.00195573
0.001565
0.000693854
0.00227135
0.00205567
0.00185277
0.00146448
0.000716559
0.00219639
0.00199532
0.00178293
0.00138871
0.000735667
0.00216154
0.00196845
0.00174606
0.00134116
0.000751859
0.00215747
0.00196832
0.00173879
0.00132114
0.000765901
0.00217145
0.00198758
0.00175586
0.00132587
0.000778496
0.00219503
0.00201989
0.00179153
0.00135174
0.000790074
0.00222109
0.0020569
0.00183832