/*--------------------------------*- C++ -*----------------------------------*\
| =========                 |                                                 |
| \\      /  F ield         | OpenFOAM: The Open Source CFD Toolbox           |
|  \\    /   O peration     | Version:  2.3.1                                 |
|   \\  /    A nd           | Web:      www.OpenFOAM.org                      |
|    \\/     M anipulation  |                                                 |
\*---------------------------------------------------------------------------*/
FoamFile
{
    version     2.0;
    format      ascii;
    class       volScalarField;
    location    "600";
    object      p;
}
// * * * * * * * * * * * * * * * * * * * * * * * * * * * * * * * * * * * * * //

dimensions      [0 2 -2 0 0 0 0];

internalField   nonuniform List<scalar> 
6852
(
77.8257
77.8275
77.8308
77.8337
77.8361
77.8209
77.8251
77.8307
77.8355
77.8396
77.8125
77.8196
77.8283
77.8358
77.8418
77.8028
77.8114
77.823
77.8332
77.8408
77.7936
77.8023
77.8152
77.8271
77.8358
77.7847
77.792
77.8051
77.8179
77.8273
77.771
77.778
77.7916
77.8051
77.815
77.7612
77.7754
77.7893
77.7993
77.7423
77.7571
77.771
77.7809
77.7221
77.7374
77.7511
77.7606
77.7018
77.7172
77.7304
77.7393
77.6822
77.6974
77.7098
77.7179
77.6643
77.6788
77.69
77.6974
77.6484
77.6618
77.6718
77.6783
77.6346
77.6467
77.6555
77.6612
77.6228
77.6336
77.6413
77.6462
77.613
77.6224
77.6291
77.6332
77.6047
77.613
77.6189
77.6223
77.598
77.6053
77.6105
77.6135
77.5926
77.5991
77.6035
77.6063
77.5884
77.5942
77.5982
77.6007
77.5853
77.5907
77.5943
77.5965
77.5833
77.5883
77.5916
77.5936
77.5823
77.587
77.5901
77.5919
77.5821
77.5866
77.5895
77.5911
77.5827
77.5871
77.5897
77.5913
77.584
77.5883
77.5908
77.5923
77.5859
77.5901
77.5926
77.594
77.5883
77.5924
77.595
77.5962
77.5909
77.5951
77.5978
77.5988
77.5939
77.5982
77.6008
77.6015
77.5973
77.6015
77.6039
77.6044
77.601
77.6048
77.6068
77.6071
77.6047
77.6079
77.6095
77.6095
77.6083
77.6108
77.6121
77.6118
77.6116
77.6133
77.6143
77.6139
77.6147
77.6157
77.6163
77.6162
77.6178
77.6181
77.6184
77.6184
77.621
77.6206
77.6206
77.6207
77.6244
77.6231
77.6227
77.6228
77.6279
77.6255
77.6243
77.6242
76.8092
76.813
76.8175
76.8206
76.8239
76.8047
76.8108
76.8173
76.8232
76.8299
76.7909
76.8025
76.8138
76.8234
76.8328
76.7748
76.7902
76.806
76.8194
76.8313
76.7622
76.778
76.796
76.8118
76.8249
76.7516
76.7658
76.7844
76.8015
76.8155
76.7375
76.7513
76.7703
76.7884
76.803
76.7204
76.7348
76.7542
76.7729
76.7879
76.7165
76.7364
76.7553
76.7702
76.6972
76.7176
76.7363
76.7507
76.6781
76.6985
76.7167
76.7301
76.6602
76.68
76.6971
76.7094
76.6441
76.6627
76.6784
76.6893
76.6301
76.647
76.6609
76.6705
76.6179
76.6329
76.6451
76.6534
76.6075
76.6206
76.6311
76.6383
76.5986
76.61
76.6189
76.6251
76.5911
76.6009
76.6085
76.6139
76.5849
76.5934
76.5998
76.6046
76.5798
76.5872
76.5928
76.5969
76.5758
76.5823
76.5873
76.5907
76.5728
76.5787
76.5832
76.5859
76.5708
76.5763
76.5803
76.5824
76.5698
76.5749
76.5785
76.5802
76.5695
76.5744
76.5777
76.5792
76.57
76.5748
76.5779
76.5791
76.5713
76.576
76.579
76.58
76.5732
76.5779
76.5808
76.5816
76.5756
76.5805
76.5832
76.5838
76.5787
76.5835
76.586
76.5864
76.5821
76.5868
76.589
76.5893
76.5858
76.59
76.5921
76.5923
76.5894
76.5931
76.5948
76.5949
76.5929
76.596
76.5973
76.5971
76.5962
76.5986
76.5996
76.5991
76.5992
76.6009
76.6016
76.601
76.602
76.6029
76.6034
76.603
76.6047
76.6048
76.6052
76.6051
76.6075
76.607
76.6071
76.6074
76.6106
76.6092
76.609
76.6096
76.615
76.612
76.611
76.6114
75.7912
75.7974
75.803
75.8062
75.8092
75.7851
75.7942
75.8019
75.8082
75.8151
75.7666
75.7823
75.7961
75.8069
75.8163
75.7445
75.7646
75.7839
75.7993
75.8113
75.7305
75.7492
75.7699
75.7876
75.8005
75.7169
75.734
75.7547
75.7737
75.7872
75.7005
75.717
75.7382
75.758
75.772
75.6817
75.6986
75.7206
75.7413
75.7555
75.6608
75.6792
75.7024
75.7238
75.738
75.6599
75.6843
75.706
75.7198
75.6419
75.6669
75.6884
75.7014
75.6263
75.651
75.6716
75.6833
75.6137
75.6368
75.6558
75.6661
75.6033
75.6244
75.6413
75.6501
75.5949
75.6135
75.6282
75.6355
75.5878
75.6039
75.6164
75.6224
75.5817
75.5955
75.606
75.6108
75.5764
75.5881
75.5968
75.6007
75.5719
75.5818
75.5889
75.592
75.568
75.5764
75.5824
75.5846
75.5647
75.572
75.577
75.5786
75.5622
75.5685
75.5728
75.574
75.5604
75.5661
75.5696
75.5707
75.5593
75.5645
75.5676
75.5686
75.5589
75.5639
75.5666
75.5676
75.5593
75.564
75.5665
75.5674
75.5603
75.565
75.5673
75.5681
75.562
75.5666
75.5688
75.5696
75.5643
75.5688
75.5709
75.5715
75.567
75.5715
75.5735
75.574
75.5702
75.5745
75.5764
75.5767
75.5736
75.5777
75.5795
75.5796
75.5772
75.581
75.5825
75.5825
75.581
75.5841
75.5852
75.585
75.5845
75.5868
75.5873
75.5869
75.5877
75.5892
75.5892
75.5884
75.5907
75.5912
75.5911
75.5903
75.5934
75.5928
75.5929
75.5922
75.5961
75.5945
75.5943
75.5943
75.5993
75.5965
75.5956
75.5964
75.6053
75.5999
75.5981
75.5986
74.7763
74.7832
74.7887
74.7916
74.7941
74.7703
74.7799
74.7873
74.7925
74.798
74.7509
74.7673
74.7805
74.7901
74.7974
74.7262
74.7479
74.7668
74.7809
74.7906
74.7074
74.729
74.7504
74.7672
74.7779
74.6898
74.7101
74.7325
74.7513
74.7628
74.6708
74.6907
74.7139
74.7342
74.7463
74.6508
74.6707
74.695
74.7166
74.7291
74.6301
74.6507
74.6764
74.6989
74.7116
74.6094
74.6316
74.6586
74.6816
74.6942
74.6146
74.6424
74.6652
74.6772
74.6006
74.6281
74.65
74.661
74.5902
74.6159
74.6361
74.6458
74.5823
74.6055
74.6235
74.6317
74.5761
74.5965
74.6121
74.6188
74.571
74.5885
74.6018
74.6072
74.5665
74.5815
74.5925
74.5967
74.5626
74.5753
74.5843
74.5875
74.559
74.5698
74.5771
74.5795
74.5559
74.565
74.5709
74.5728
74.5532
74.561
74.5658
74.5672
74.551
74.5578
74.5617
74.5628
74.5494
74.5554
74.5586
74.5595
74.5485
74.5539
74.5566
74.5573
74.5481
74.5532
74.5555
74.5561
74.5485
74.5533
74.5554
74.5559
74.5495
74.5541
74.556
74.5564
74.5512
74.5556
74.5574
74.5577
74.5533
74.5577
74.5593
74.5596
74.556
74.5602
74.5617
74.5618
74.559
74.563
74.5644
74.5644
74.5623
74.566
74.5672
74.5671
74.5658
74.569
74.57
74.5697
74.5692
74.5719
74.5726
74.5723
74.5725
74.5744
74.5747
74.5742
74.5756
74.5767
74.5765
74.5757
74.5786
74.5788
74.5784
74.5775
74.5814
74.5805
74.5803
74.5793
74.5843
74.5823
74.5816
74.5814
74.5878
74.5841
74.5828
74.5835
74.5949
74.588
74.5853
74.5858
73.7648
73.7711
73.7756
73.778
73.7799
73.7606
73.7689
73.7748
73.7789
73.7826
73.7429
73.7571
73.7682
73.7761
73.781
73.7169
73.7376
73.7544
73.7668
73.7737
73.6938
73.7169
73.7373
73.7529
73.761
73.6734
73.6961
73.7187
73.7367
73.7458
73.6534
73.6753
73.6999
73.7199
73.7295
73.633
73.6553
73.6816
73.7029
73.7126
73.6126
73.6365
73.6638
73.6861
73.6956
73.593
73.6189
73.6471
73.6696
73.6787
73.5759
73.6036
73.6317
73.6539
73.6623
73.5907
73.6181
73.6391
73.6466
73.5811
73.6064
73.6256
73.6319
73.5736
73.5964
73.6133
73.6184
73.5676
73.5876
73.6021
73.606
73.5627
73.5799
73.5918
73.5947
73.5583
73.573
73.5826
73.5846
73.5544
73.5667
73.5744
73.5756
73.5507
73.5612
73.5671
73.5678
73.5475
73.5562
73.5608
73.5611
73.5446
73.552
73.5556
73.5556
73.5422
73.5486
73.5513
73.5512
73.5404
73.546
73.5481
73.5478
73.5391
73.5441
73.5459
73.5456
73.5385
73.5431
73.5446
73.5443
73.5386
73.5429
73.5442
73.5439
73.5393
73.5434
73.5446
73.5444
73.5407
73.5446
73.5458
73.5455
73.5426
73.5464
73.5475
73.5473
73.5449
73.5486
73.5497
73.5494
73.5477
73.5511
73.5522
73.5519
73.5507
73.5539
73.5549
73.5545
73.5538
73.5566
73.5574
73.557
73.557
73.5592
73.5597
73.5591
73.56
73.5615
73.5616
73.5609
73.563
73.5637
73.5636
73.5626
73.5658
73.5658
73.5656
73.5646
73.5685
73.5675
73.5674
73.5666
73.5713
73.5694
73.5687
73.5689
73.5744
73.5714
73.5702
73.571
73.5794
73.5744
73.5725
73.573
72.7542
72.7594
72.7633
72.7658
72.767
72.7506
72.7581
72.7636
72.7677
72.7698
72.7342
72.7471
72.7573
72.7649
72.7679
72.7076
72.7274
72.7439
72.7563
72.7608
72.6822
72.7057
72.7271
72.7432
72.7489
72.661
72.6854
72.7095
72.728
72.7345
72.6419
72.6661
72.6919
72.7119
72.7188
72.6234
72.6478
72.6745
72.6955
72.7024
72.6053
72.6303
72.6577
72.679
72.6858
72.5875
72.6138
72.6416
72.6629
72.6692
72.5712
72.599
72.6266
72.6473
72.6529
72.557
72.5861
72.613
72.6325
72.6372
72.5764
72.6013
72.6188
72.6224
72.5688
72.5911
72.6063
72.6087
72.5625
72.582
72.5947
72.5961
72.5571
72.5737
72.5841
72.5846
72.5523
72.5663
72.5745
72.5743
72.5477
72.5594
72.5659
72.5651
72.5435
72.5533
72.5582
72.5571
72.5397
72.5478
72.5515
72.5502
72.5363
72.543
72.5459
72.5445
72.5333
72.5391
72.5412
72.5399
72.531
72.536
72.5376
72.5364
72.5293
72.5337
72.5351
72.534
72.5283
72.5323
72.5334
72.5326
72.528
72.5317
72.5327
72.532
72.5283
72.5318
72.5329
72.5323
72.5293
72.5327
72.5337
72.5333
72.5309
72.5342
72.5352
72.535
72.533
72.5361
72.5371
72.537
72.5354
72.5384
72.5394
72.5392
72.5381
72.5408
72.5417
72.5414
72.5409
72.5433
72.5441
72.5438
72.5438
72.5457
72.5465
72.546
72.5466
72.5479
72.5485
72.548
72.5495
72.5501
72.5503
72.5499
72.5522
72.5524
72.5522
72.552
72.5549
72.5544
72.5542
72.5541
72.5578
72.5566
72.5561
72.5563
72.5608
72.5587
72.558
72.5583
72.5644
72.5612
72.5598
72.5598
-7.944
-7.94396
-7.94393
-7.94391
-7.94391
-7.94404
-7.94399
-7.94394
-7.94392
-7.9439
-7.94409
-7.94403
-7.94396
-7.94391
-7.94387
-7.94406
-7.94402
-7.94396
-7.94389
-7.94382
-7.94382
-7.94391
-7.9439
-7.94384
-7.94373
-7.94332
-7.94365
-7.94378
-7.94374
-7.9436
-7.94268
-7.94329
-7.94364
-7.94364
-7.94346
-7.94213
-7.94298
-7.94354
-7.94359
-7.94336
-7.94168
-7.94277
-7.9435
-7.94361
-7.94335
-7.94147
-7.94277
-7.94366
-7.94382
-7.94353
-7.9416
-7.94308
-7.94406
-7.94424
-7.94391
-7.94209
-7.94368
-7.9447
-7.94486
-7.94451
-7.94286
-7.94453
-7.94555
-7.94568
-7.9453
-7.94391
-7.94559
-7.94656
-7.94665
-7.94625
-7.94516
-7.94679
-7.94768
-7.94773
-7.94732
-7.94809
-7.94889
-7.94889
-7.94848
-7.94944
-7.95013
-7.9501
-7.9497
-7.95081
-7.9514
-7.95134
-7.95094
-7.95218
-7.95267
-7.95259
-7.9522
-7.95354
-7.95394
-7.95384
-7.95347
-7.95488
-7.95521
-7.95508
-7.95473
-7.9562
-7.95646
-7.95632
-7.95597
-7.9575
-7.95769
-7.95753
-7.9572
-7.95877
-7.95889
-7.95871
-7.95839
-7.95998
-7.96004
-7.95985
-7.95954
-7.96112
-7.96113
-7.96094
-7.96064
-7.96216
-7.96213
-7.96195
-7.96167
-7.9631
-7.96305
-7.96288
-7.96263
-7.96391
-7.96385
-7.96371
-7.9635
-7.96458
-7.96456
-7.96446
-7.96428
-7.96513
-7.96516
-7.96512
-7.96498
-7.96558
-7.96569
-7.9657
-7.9656
-7.96597
-7.96614
-7.96623
-7.96616
-7.96627
-7.96656
-7.9667
-7.96667
-7.9665
-7.96694
-7.96714
-7.96712
-7.96671
-7.96727
-7.9675
-7.9675
-7.96697
-7.96754
-7.96774
-7.96774
-7.96726
-7.96766
-7.96776
-7.9678
-7.96717
-7.96733
-7.9674
-7.96756
-7.9664
-7.96662
-7.96684
-7.96718
-7.96518
-7.96563
-7.96613
-7.96673
-8.95417
-8.95412
-8.95408
-8.95405
-8.95404
-8.95419
-8.95415
-8.95409
-8.95406
-8.95403
-8.95435
-8.95425
-8.95415
-8.95408
-8.95403
-8.95442
-8.95433
-8.9542
-8.9541
-8.95402
-8.95434
-8.95434
-8.95424
-8.95411
-8.95398
-8.95406
-8.95426
-8.95427
-8.95411
-8.95392
-8.95371
-8.95411
-8.95428
-8.95413
-8.95386
-8.9534
-8.954
-8.95432
-8.95419
-8.95384
-8.95322
-8.95401
-8.95446
-8.95435
-8.95393
-8.95325
-8.95421
-8.95478
-8.95468
-8.95419
-8.95353
-8.95465
-8.9553
-8.95519
-8.95465
-8.95413
-8.95534
-8.95602
-8.95589
-8.9553
-8.95492
-8.95622
-8.95691
-8.95674
-8.95613
-8.95595
-8.95729
-8.95794
-8.95772
-8.9571
-8.95713
-8.95846
-8.95906
-8.9588
-8.95817
-8.95842
-8.95971
-8.96024
-8.95994
-8.95932
-8.96099
-8.96144
-8.96111
-8.96051
-8.96228
-8.96265
-8.96231
-8.96172
-8.96359
-8.96388
-8.96352
-8.96294
-8.9649
-8.9651
-8.96473
-8.96417
-8.96622
-8.96633
-8.96594
-8.96539
-8.96753
-8.96756
-8.96714
-8.9666
-8.96882
-8.96877
-8.96833
-8.9678
-8.97008
-8.96995
-8.96949
-8.96897
-8.97129
-8.97108
-8.97061
-8.97011
-8.97242
-8.97215
-8.97168
-8.9712
-8.97344
-8.97314
-8.97267
-8.97223
-8.97435
-8.97403
-8.97359
-8.97318
-8.97513
-8.97481
-8.97442
-8.97406
-8.97576
-8.97548
-8.97515
-8.97485
-8.97622
-8.97605
-8.97581
-8.97557
-8.9766
-8.97656
-8.9764
-8.97622
-8.97693
-8.97703
-8.97696
-8.97682
-8.97723
-8.97749
-8.97748
-8.97738
-8.97762
-8.97796
-8.97799
-8.97791
-8.97817
-8.97845
-8.97848
-8.97838
-8.97884
-8.9789
-8.97882
-8.97873
-8.97941
-8.97916
-8.9789
-8.97884
-8.97926
-8.97885
-8.9785
-8.9786
-8.97786
-8.9777
-8.97768
-8.97813
-8.97529
-8.97555
-8.97628
-8.97739
-9.96431
-9.96426
-9.96421
-9.96418
-9.96416
-9.96431
-9.96426
-9.9642
-9.96417
-9.96414
-9.96458
-9.96445
-9.96431
-9.96422
-9.96417
-9.96471
-9.96457
-9.96441
-9.96428
-9.96419
-9.96469
-9.96464
-9.96452
-9.96436
-9.96423
-9.96457
-9.96467
-9.96464
-9.96447
-9.96428
-9.96442
-9.96471
-9.96479
-9.96463
-9.96437
-9.96435
-9.96481
-9.96502
-9.96487
-9.96454
-9.96439
-9.96503
-9.96537
-9.96523
-9.96484
-9.96465
-9.96545
-9.9659
-9.96576
-9.96531
-9.96511
-9.96606
-9.9666
-9.96647
-9.96595
-9.96588
-9.96692
-9.96749
-9.96734
-9.96678
-9.96678
-9.96791
-9.96852
-9.96833
-9.96774
-9.96787
-9.96905
-9.96965
-9.96943
-9.9688
-9.96907
-9.97027
-9.97084
-9.97057
-9.96993
-9.97034
-9.97155
-9.97208
-9.97175
-9.9711
-9.97165
-9.97283
-9.97331
-9.97293
-9.97228
-9.97413
-9.97454
-9.97412
-9.97347
-9.97543
-9.97576
-9.9753
-9.97466
-9.97674
-9.97697
-9.97648
-9.97583
-9.97806
-9.97817
-9.97764
-9.977
-9.97937
-9.97937
-9.9788
-9.97816
-9.98068
-9.98054
-9.97993
-9.9793
-9.98194
-9.98168
-9.98103
-9.9804
-9.98313
-9.98275
-9.98208
-9.98147
-9.98419
-9.98374
-9.98306
-9.98249
-9.98509
-9.98463
-9.98397
-9.98343
-9.98583
-9.98539
-9.98478
-9.98431
-9.98642
-9.98601
-9.9855
-9.98511
-9.98682
-9.98652
-9.98614
-9.98584
-9.98705
-9.98697
-9.98672
-9.98651
-9.98724
-9.98733
-9.98725
-9.98714
-9.98748
-9.9876
-9.98779
-9.98776
-9.98783
-9.98791
-9.98839
-9.9884
-9.98841
-9.98845
-9.98908
-9.98906
-9.98936
-9.98936
-9.98977
-9.98973
-9.99069
-9.99056
-9.9904
-9.99032
-9.99213
-9.99164
-9.99085
-9.99068
-9.99281
-9.99184
-9.99063
-9.99051
-9.99146
-9.99049
-9.98959
-9.99003
-9.98795
-9.98738
-9.98739
-9.98908
-10.9744
-10.9744
-10.9743
-10.9743
-10.9742
-10.9744
-10.9743
-10.9743
-10.9742
-10.9741
-10.9747
-10.9746
-10.9744
-10.9743
-10.9742
-10.9749
-10.9747
-10.9746
-10.9744
-10.9743
-10.9749
-10.9749
-10.9747
-10.9745
-10.9744
-10.975
-10.975
-10.9749
-10.9748
-10.9746
-10.975
-10.9752
-10.9752
-10.9751
-10.9748
-10.9751
-10.9755
-10.9756
-10.9755
-10.9752
-10.9754
-10.9759
-10.9762
-10.9761
-10.9757
-10.9758
-10.9765
-10.9769
-10.9768
-10.9764
-10.9765
-10.9773
-10.9778
-10.9777
-10.9773
-10.9775
-10.9784
-10.9789
-10.9788
-10.9783
-10.9785
-10.9795
-10.9801
-10.9799
-10.9794
-10.9797
-10.9807
-10.9813
-10.9811
-10.9806
-10.9809
-10.982
-10.9826
-10.9824
-10.9818
-10.9822
-10.9833
-10.9838
-10.9836
-10.9831
-10.9835
-10.9846
-10.9851
-10.9848
-10.9843
-10.9848
-10.9859
-10.9864
-10.986
-10.9854
-10.9871
-10.9876
-10.9872
-10.9866
-10.9884
-10.9888
-10.9884
-10.9878
-10.9897
-10.99
-10.9895
-10.9889
-10.991
-10.9912
-10.9906
-10.99
-10.9923
-10.9923
-10.9917
-10.9911
-10.9935
-10.9934
-10.9927
-10.9921
-10.9946
-10.9943
-10.9937
-10.9931
-10.9955
-10.9952
-10.9945
-10.994
-10.9962
-10.9959
-10.9953
-10.9948
-10.9968
-10.9965
-10.996
-10.9956
-10.9972
-10.997
-10.9966
-10.9963
-10.9975
-10.9972
-10.9971
-10.9969
-10.9976
-10.9973
-10.9975
-10.9975
-10.9978
-10.9974
-10.998
-10.9982
-10.9979
-10.9976
-10.9986
-10.9988
-10.9984
-10.9983
-10.9991
-10.9996
-10.9993
-10.9995
-10.9997
-11.0005
-11.0009
-11.0011
-11.0006
-11.0016
-11.0032
-11.0031
-11.0019
-11.0027
-11.0058
-11.0051
-11.0032
-11.0035
-11.0076
-11.0061
-11.004
-11.0036
-11.007
-11.0052
-11.0032
-11.0032
-11.0032
-11.0016
-11.0004
-11.0021
-11.9845
-11.9844
-11.9843
-11.9843
-11.9842
-11.9844
-11.9844
-11.9843
-11.9842
-11.984
-11.9847
-11.9846
-11.9845
-11.9843
-11.9841
-11.9849
-11.9848
-11.9846
-11.9845
-11.9843
-11.9851
-11.985
-11.9849
-11.9847
-11.9845
-11.9852
-11.9853
-11.9852
-11.985
-11.9848
-11.9855
-11.9856
-11.9856
-11.9855
-11.9852
-11.9858
-11.9861
-11.9862
-11.9861
-11.9858
-11.9862
-11.9867
-11.987
-11.9868
-11.9866
-11.9869
-11.9875
-11.9879
-11.9878
-11.9875
-11.9877
-11.9885
-11.9889
-11.9888
-11.9885
-11.9889
-11.9897
-11.9901
-11.99
-11.9897
-11.9901
-11.9909
-11.9914
-11.9913
-11.991
-11.9913
-11.9922
-11.9927
-11.9926
-11.9923
-11.9926
-11.9936
-11.994
-11.994
-11.9936
-11.9939
-11.9949
-11.9954
-11.9953
-11.9949
-11.9951
-11.9961
-11.9966
-11.9965
-11.9961
-11.9963
-11.9974
-11.9979
-11.9977
-11.9973
-11.9976
-11.9987
-11.9991
-11.9989
-11.9985
-12
-12.0003
-12.0001
-11.9996
-12.0012
-12.0015
-12.0012
-12.0007
-12.0024
-12.0026
-12.0022
-12.0018
-12.0036
-12.0037
-12.0032
-12.0028
-12.0047
-12.0047
-12.0042
-12.0037
-12.0056
-12.0055
-12.005
-12.0046
-12.0064
-12.0062
-12.0058
-12.0054
-12.0071
-12.0067
-12.0064
-12.0062
-12.0076
-12.007
-12.0069
-12.0068
-12.0078
-12.0071
-12.0074
-12.0074
-12.0079
-12.0071
-12.0077
-12.008
-12.008
-12.0073
-12.0081
-12.0086
-12.0082
-12.0077
-12.0084
-12.0093
-12.0087
-12.0085
-12.0085
-12.0101
-12.0097
-12.0095
-12.0089
-12.0113
-12.0114
-12.011
-12.0101
-12.0128
-12.0138
-12.013
-12.012
-12.0144
-12.017
-12.0155
-12.0143
-12.016
-12.0206
-12.0184
-12.0168
-12.0173
-12.0234
-12.0207
-12.0184
-12.0177
-12.024
-12.0211
-12.0183
-12.0175
-12.0206
-12.0178
-12.0156
-12.0164
-12.9945
-12.9944
-12.9943
-12.9942
-12.9941
-12.9944
-12.9944
-12.9942
-12.9941
-12.9937
-12.9947
-12.9946
-12.9945
-12.9942
-12.9939
-12.9948
-12.9948
-12.9947
-12.9945
-12.9942
-12.9952
-12.9952
-12.995
-12.9948
-12.9945
-12.9955
-12.9956
-12.9955
-12.9953
-12.995
-12.9959
-12.9961
-12.9961
-12.9959
-12.9956
-12.9964
-12.9967
-12.9968
-12.9967
-12.9964
-12.9969
-12.9974
-12.9977
-12.9976
-12.9973
-12.9978
-12.9984
-12.9987
-12.9986
-12.9984
-12.9988
-12.9995
-12.9998
-12.9998
-12.9996
-13.0003
-13.0009
-13.0012
-13.0011
-13.0009
-13.0015
-13.0022
-13.0026
-13.0025
-13.0023
-13.0028
-13.0036
-13.004
-13.0038
-13.0037
-13.0041
-13.005
-13.0053
-13.0052
-13.005
-13.0053
-13.0062
-13.0066
-13.0066
-13.0064
-13.0065
-13.0075
-13.0079
-13.0078
-13.0076
-13.0077
-13.0087
-13.0091
-13.0091
-13.0089
-13.0089
-13.0099
-13.0103
-13.0103
-13.01
-13.0102
-13.0111
-13.0114
-13.0114
-13.0112
-13.0123
-13.0125
-13.0125
-13.0123
-13.0135
-13.0136
-13.0135
-13.0133
-13.0146
-13.0145
-13.0144
-13.0142
-13.0155
-13.0153
-13.0152
-13.0151
-13.0163
-13.0159
-13.016
-13.0159
-13.017
-13.0164
-13.0166
-13.0167
-13.0174
-13.0167
-13.0171
-13.0173
-13.0178
-13.017
-13.0175
-13.018
-13.018
-13.0173
-13.0178
-13.0186
-13.0184
-13.0177
-13.0179
-13.0192
-13.0189
-13.0183
-13.0179
-13.02
-13.0197
-13.019
-13.0181
-13.021
-13.021
-13.02
-13.0189
-13.0223
-13.023
-13.0214
-13.0206
-13.024
-13.0256
-13.0234
-13.023
-13.0258
-13.0288
-13.026
-13.0258
-13.0276
-13.0326
-13.0292
-13.0285
-13.0293
-13.0366
-13.0325
-13.0311
-13.0309
-13.04
-13.0355
-13.0329
-13.0319
-13.0412
-13.0369
-13.0339
-13.0323
-13.0386
-13.0347
-13.0317
-13.0314
-14.0045
-14.0044
-14.0042
-14.0041
-14.0039
-14.0044
-14.0043
-14.0042
-14.0039
-14.0034
-14.0046
-14.0046
-14.0044
-14.0041
-14.0036
-14.0048
-14.0049
-14.0048
-14.0045
-14.004
-14.0053
-14.0054
-14.0053
-14.005
-14.0046
-14.0057
-14.0059
-14.0059
-14.0056
-14.0053
-14.0062
-14.0065
-14.0066
-14.0064
-14.0061
-14.0068
-14.0072
-14.0074
-14.0073
-14.007
-14.0075
-14.008
-14.0084
-14.0083
-14.0081
-14.0086
-14.0092
-14.0095
-14.0095
-14.0093
-14.0097
-14.0104
-14.0107
-14.0107
-14.0106
-14.0114
-14.012
-14.0122
-14.0121
-14.0121
-14.0127
-14.0134
-14.0137
-14.0135
-14.0135
-14.0141
-14.0148
-14.0151
-14.0149
-14.0149
-14.0154
-14.0161
-14.0165
-14.0163
-14.0163
-14.0166
-14.0174
-14.0178
-14.0176
-14.0177
-14.0178
-14.0186
-14.019
-14.0189
-14.019
-14.0189
-14.0197
-14.0202
-14.0201
-14.0202
-14.0201
-14.0208
-14.0213
-14.0213
-14.0214
-14.0212
-14.022
-14.0224
-14.0225
-14.0225
-14.0224
-14.0231
-14.0234
-14.0235
-14.0236
-14.0241
-14.0243
-14.0245
-14.0246
-14.025
-14.0251
-14.0253
-14.0255
-14.0259
-14.0258
-14.0261
-14.0264
-14.0266
-14.0264
-14.0267
-14.0272
-14.0273
-14.0269
-14.0272
-14.0279
-14.0279
-14.0274
-14.0275
-14.0286
-14.0285
-14.0279
-14.0277
-14.0293
-14.0292
-14.0284
-14.0277
-14.0301
-14.0302
-14.029
-14.0279
-14.031
-14.0315
-14.0298
-14.0287
-14.0323
-14.0333
-14.031
-14.0302
-14.0338
-14.0357
-14.0327
-14.0324
-14.0354
-14.0386
-14.035
-14.0349
-14.0369
-14.042
-14.0377
-14.0375
-14.0384
-14.0458
-14.0408
-14.04
-14.0399
-14.0499
-14.0443
-14.0425
-14.0418
-14.0539
-14.0477
-14.0449
-14.0438
-14.0573
-14.0509
-14.0472
-14.0457
-14.0573
-14.0519
-14.0483
-14.047
-14.0567
-14.0515
-14.0476
-14.0465
-15.0144
-15.0143
-15.0142
-15.0141
-15.0138
-15.0143
-15.0143
-15.0141
-15.0138
-15.0131
-15.0145
-15.0146
-15.0144
-15.0141
-15.0134
-15.0149
-15.015
-15.0149
-15.0145
-15.0139
-15.0154
-15.0156
-15.0156
-15.0152
-15.0147
-15.0159
-15.0162
-15.0163
-15.016
-15.0156
-15.0165
-15.0169
-15.0171
-15.0169
-15.0166
-15.0172
-15.0176
-15.018
-15.0179
-15.0177
-15.018
-15.0186
-15.0189
-15.019
-15.0189
-15.0193
-15.0199
-15.0202
-15.0203
-15.0202
-15.0205
-15.0212
-15.0216
-15.0216
-15.0217
-15.0223
-15.0229
-15.0232
-15.0231
-15.0232
-15.0237
-15.0243
-15.0247
-15.0246
-15.0247
-15.0252
-15.0258
-15.0262
-15.026
-15.0262
-15.0265
-15.0272
-15.0275
-15.0274
-15.0277
-15.0278
-15.0284
-15.0288
-15.0288
-15.029
-15.029
-15.0296
-15.03
-15.03
-15.0303
-15.0301
-15.0307
-15.0312
-15.0312
-15.0316
-15.0313
-15.0318
-15.0323
-15.0324
-15.0328
-15.0325
-15.0329
-15.0333
-15.0334
-15.0339
-15.0337
-15.034
-15.0343
-15.0344
-15.035
-15.0349
-15.035
-15.0353
-15.0353
-15.036
-15.0359
-15.0361
-15.0361
-15.037
-15.0368
-15.0368
-15.0367
-15.0378
-15.0377
-15.0375
-15.0372
-15.0387
-15.0386
-15.0381
-15.0375
-15.0395
-15.0395
-15.0387
-15.0378
-15.0404
-15.0407
-15.0393
-15.0383
-15.0414
-15.0421
-15.0402
-15.0393
-15.0426
-15.044
-15.0413
-15.0408
-15.044
-15.0464
-15.0429
-15.0427
-15.0453
-15.0493
-15.0449
-15.0448
-15.0466
-15.0527
-15.0474
-15.047
-15.0478
-15.0564
-15.0503
-15.0492
-15.0489
-15.0604
-15.0536
-15.0514
-15.0506
-15.0645
-15.0571
-15.0538
-15.0528
-15.0687
-15.0608
-15.0566
-15.0555
-15.0723
-15.0642
-15.0594
-15.0584
-15.0754
-15.0672
-15.0621
-15.0609
-15.0739
-15.0671
-15.0631
-15.0629
-15.0753
-15.0689
-15.0642
-15.0628
-16.0243
-16.0243
-16.0242
-16.0241
-16.0238
-16.0242
-16.0243
-16.0241
-16.0238
-16.0231
-16.0245
-16.0247
-16.0246
-16.0242
-16.0234
-16.025
-16.0252
-16.0252
-16.0248
-16.024
-16.0255
-16.0258
-16.0259
-16.0256
-16.025
-16.026
-16.0264
-16.0267
-16.0265
-16.026
-16.0267
-16.0271
-16.0275
-16.0275
-16.0271
-16.0275
-16.028
-16.0284
-16.0285
-16.0283
-16.0284
-16.0291
-16.0294
-16.0297
-16.0296
-16.0298
-16.0304
-16.0309
-16.031
-16.0311
-16.0311
-16.0319
-16.0324
-16.0324
-16.0327
-16.0331
-16.0337
-16.0342
-16.0341
-16.0344
-16.0346
-16.0353
-16.0357
-16.0357
-16.036
-16.0363
-16.0369
-16.0373
-16.0372
-16.0376
-16.0377
-16.0382
-16.0386
-16.0386
-16.039
-16.0391
-16.0396
-16.0399
-16.04
-16.0404
-16.0404
-16.0408
-16.0411
-16.0412
-16.0418
-16.0417
-16.042
-16.0423
-16.0424
-16.0431
-16.043
-16.0431
-16.0434
-16.0436
-16.0444
-16.0443
-16.0442
-16.0445
-16.0447
-16.0456
-16.0457
-16.0454
-16.0456
-16.0456
-16.0467
-16.0471
-16.0465
-16.0465
-16.0465
-16.0478
-16.0487
-16.0476
-16.0474
-16.0472
-16.0489
-16.0487
-16.0482
-16.0479
-16.0499
-16.0499
-16.049
-16.0486
-16.0509
-16.0512
-16.0499
-16.0495
-16.0521
-16.0529
-16.0509
-16.0506
-16.0532
-16.0548
-16.052
-16.0519
-16.0544
-16.0572
-16.0535
-16.0535
-16.0556
-16.06
-16.0554
-16.0553
-16.0567
-16.0634
-16.0578
-16.0572
-16.0576
-16.0673
-16.0605
-16.059
-16.0586
-16.0716
-16.0637
-16.061
-16.0601
-16.076
-16.0673
-16.0633
-16.0623
-16.0804
-16.0712
-16.0663
-16.0652
-16.0847
-16.0752
-16.0697
-16.0685
-16.0887
-16.0791
-16.0732
-16.0719
-16.0919
-16.0823
-16.0762
-16.0749
-16.0941
-16.0848
-16.0787
-16.0775
-16.0928
-16.0841
-16.079
-16.0787
-16.0935
-16.0868
-16.0816
-16.0797
-17.0343
-17.0344
-17.0344
-17.0343
-17.034
-17.0341
-17.0343
-17.0343
-17.034
-17.0333
-17.0345
-17.0349
-17.0349
-17.0345
-17.0337
-17.035
-17.0354
-17.0355
-17.0351
-17.0344
-17.0356
-17.036
-17.0363
-17.036
-17.0354
-17.0362
-17.0366
-17.037
-17.037
-17.0366
-17.0369
-17.0374
-17.0378
-17.038
-17.0377
-17.0378
-17.0383
-17.0387
-17.039
-17.039
-17.0387
-17.0395
-17.04
-17.0402
-17.0405
-17.0402
-17.041
-17.0416
-17.0417
-17.0421
-17.0416
-17.0426
-17.0433
-17.0433
-17.0438
-17.0439
-17.0446
-17.0451
-17.0452
-17.0456
-17.0455
-17.0462
-17.0468
-17.0469
-17.0473
-17.0475
-17.048
-17.0484
-17.0485
-17.0489
-17.0491
-17.0495
-17.0498
-17.05
-17.0505
-17.0508
-17.051
-17.0512
-17.0514
-17.052
-17.0523
-17.0523
-17.0525
-17.0528
-17.0534
-17.0539
-17.0537
-17.0537
-17.0541
-17.0549
-17.0555
-17.055
-17.055
-17.0553
-17.0563
-17.0572
-17.0563
-17.0562
-17.0564
-17.0576
-17.0589
-17.0577
-17.0573
-17.0575
-17.0589
-17.0608
-17.059
-17.0584
-17.0586
-17.0602
-17.0628
-17.0605
-17.0595
-17.0596
-17.0614
-17.065
-17.062
-17.0605
-17.0607
-17.0626
-17.0637
-17.0617
-17.0619
-17.0637
-17.0657
-17.063
-17.0632
-17.0649
-17.068
-17.0645
-17.0646
-17.066
-17.0707
-17.0662
-17.0661
-17.0669
-17.0739
-17.0684
-17.0676
-17.0678
-17.0777
-17.071
-17.0692
-17.0687
-17.0821
-17.074
-17.071
-17.0701
-17.0869
-17.0776
-17.0733
-17.0722
-17.092
-17.0817
-17.0763
-17.0751
-17.097
-17.0861
-17.0799
-17.0786
-17.1017
-17.0906
-17.0838
-17.0822
-17.1059
-17.0948
-17.0877
-17.0859
-17.1095
-17.0986
-17.0913
-17.0894
-17.112
-17.1014
-17.0942
-17.0923
-17.1129
-17.103
-17.0962
-17.0946
-17.112
-17.1024
-17.0959
-17.0949
-17.1092
-17.1027
-17.0983
-17.0967
-18.0443
-18.0446
-18.0446
-18.0446
-18.0443
-18.0441
-18.0446
-18.0447
-18.0444
-18.0437
-18.0447
-18.0452
-18.0453
-18.045
-18.0442
-18.0452
-18.0457
-18.046
-18.0457
-18.045
-18.0457
-18.0462
-18.0467
-18.0466
-18.046
-18.0463
-18.0468
-18.0473
-18.0475
-18.0472
-18.047
-18.0476
-18.048
-18.0484
-18.0484
-18.048
-18.0486
-18.0492
-18.0495
-18.0498
-18.0491
-18.0499
-18.0506
-18.0508
-18.0514
-18.0508
-18.0516
-18.0523
-18.0525
-18.0532
-18.0522
-18.0533
-18.0541
-18.0544
-18.055
-18.0548
-18.0555
-18.0561
-18.0564
-18.0568
-18.0567
-18.0574
-18.0579
-18.0582
-18.0586
-18.0591
-18.0593
-18.0596
-18.0599
-18.0603
-18.0611
-18.0611
-18.0612
-18.0615
-18.0619
-18.0632
-18.0628
-18.0627
-18.063
-18.0635
-18.0652
-18.0645
-18.0642
-18.0645
-18.0652
-18.0673
-18.0661
-18.0656
-18.066
-18.0668
-18.0693
-18.0678
-18.067
-18.0674
-18.0683
-18.0715
-18.0695
-18.0684
-18.0688
-18.0698
-18.0737
-18.0712
-18.0698
-18.0701
-18.0713
-18.0761
-18.073
-18.0712
-18.0715
-18.0726
-18.0786
-18.0749
-18.0726
-18.0728
-18.0739
-18.0814
-18.0769
-18.074
-18.0741
-18.075
-18.0845
-18.0792
-18.0755
-18.0754
-18.0761
-18.0817
-18.0773
-18.0768
-18.077
-18.0847
-18.0793
-18.0781
-18.0779
-18.0881
-18.0816
-18.0796
-18.079
-18.0921
-18.0844
-18.0813
-18.0805
-18.0968
-18.0878
-18.0836
-18.0826
-18.102
-18.0919
-18.0866
-18.0855
-18.1076
-18.0965
-18.0902
-18.0888
-18.1133
-18.1014
-18.0942
-18.0925
-18.1187
-18.1063
-18.0984
-18.0964
-18.1235
-18.1111
-18.1027
-18.1004
-18.1275
-18.1153
-18.1067
-18.1041
-18.1305
-18.1188
-18.1102
-18.1075
-18.1322
-18.121
-18.1127
-18.1102
-18.1318
-18.1215
-18.1141
-18.112
-18.1292
-18.1199
-18.1136
-18.1124
-18.1251
-18.1182
-18.1143
-18.113
-19.0545
-19.0549
-19.0551
-19.0551
-19.0549
-19.0544
-19.055
-19.0552
-19.0551
-19.0543
-19.0551
-19.0556
-19.056
-19.0557
-19.055
-19.0554
-19.056
-19.0565
-19.0564
-19.0558
-19.056
-19.0565
-19.0571
-19.0572
-19.0568
-19.0565
-19.0571
-19.0576
-19.058
-19.0579
-19.0573
-19.0579
-19.0585
-19.0589
-19.0592
-19.0583
-19.059
-19.0597
-19.0599
-19.0607
-19.0595
-19.0604
-19.0612
-19.0615
-19.0624
-19.0614
-19.0623
-19.0631
-19.0635
-19.0642
-19.0629
-19.0641
-19.065
-19.0656
-19.0661
-19.066
-19.0666
-19.0672
-19.0677
-19.068
-19.0684
-19.0687
-19.0691
-19.0695
-19.0698
-19.0713
-19.0711
-19.071
-19.0714
-19.0717
-19.0739
-19.0732
-19.0728
-19.0731
-19.0735
-19.0767
-19.0754
-19.0747
-19.0748
-19.0753
-19.0793
-19.0775
-19.0764
-19.0765
-19.0771
-19.0819
-19.0796
-19.0782
-19.0782
-19.0789
-19.0846
-19.0818
-19.0799
-19.0798
-19.0805
-19.0874
-19.0839
-19.0816
-19.0814
-19.082
-19.0902
-19.0861
-19.0833
-19.083
-19.0834
-19.0931
-19.0884
-19.085
-19.0844
-19.0847
-19.0962
-19.0907
-19.0867
-19.0858
-19.0859
-19.0995
-19.0932
-19.0885
-19.0872
-19.0871
-19.1031
-19.096
-19.0905
-19.0887
-19.0884
-19.1071
-19.0991
-19.0927
-19.0902
-19.0898
-19.1027
-19.0953
-19.0921
-19.0915
-19.1068
-19.0984
-19.0945
-19.0937
-19.1115
-19.1021
-19.0973
-19.0963
-19.1169
-19.1063
-19.1007
-19.0995
-19.1227
-19.1111
-19.1045
-19.103
-19.1288
-19.1164
-19.1087
-19.1068
-19.1347
-19.1217
-19.1132
-19.1109
-19.1402
-19.127
-19.1176
-19.1149
-19.1447
-19.1317
-19.1219
-19.1188
-19.1483
-19.1357
-19.1257
-19.1223
-19.1509
-19.1388
-19.1289
-19.1254
-19.1521
-19.1406
-19.1312
-19.1278
-19.151
-19.1404
-19.1321
-19.1293
-19.1474
-19.1378
-19.1312
-19.1297
-19.1431
-19.1355
-19.1308
-19.1293
-20.0648
-20.0654
-20.0658
-20.0658
-20.0656
-20.0649
-20.0657
-20.0661
-20.0659
-20.0653
-20.0656
-20.0662
-20.0667
-20.0666
-20.066
-20.0659
-20.0665
-20.0671
-20.0673
-20.0668
-20.0664
-20.067
-20.0675
-20.068
-20.0677
-20.0669
-20.0675
-20.0681
-20.0686
-20.0688
-20.0677
-20.0683
-20.069
-20.0693
-20.0701
-20.0689
-20.0696
-20.0703
-20.0706
-20.0717
-20.0702
-20.0711
-20.0719
-20.0725
-20.0735
-20.0723
-20.0732
-20.0739
-20.0747
-20.0752
-20.074
-20.0752
-20.076
-20.0768
-20.0771
-20.0778
-20.0781
-20.0784
-20.0789
-20.0792
-20.0807
-20.0806
-20.0806
-20.081
-20.0812
-20.0844
-20.0835
-20.0829
-20.083
-20.0834
-20.0878
-20.0862
-20.0851
-20.085
-20.0855
-20.0913
-20.089
-20.0873
-20.0871
-20.0875
-20.0947
-20.0917
-20.0895
-20.0891
-20.0895
-20.0981
-20.0944
-20.0916
-20.091
-20.0914
-20.1015
-20.0971
-20.0938
-20.0929
-20.0932
-20.105
-20.0998
-20.0959
-20.0947
-20.0949
-20.1084
-20.1025
-20.098
-20.0965
-20.0966
-20.1118
-20.1053
-20.1001
-20.0982
-20.0982
-20.1154
-20.1081
-20.1023
-20.1
-20.0998
-20.1191
-20.1111
-20.1046
-20.1018
-20.1014
-20.123
-20.1143
-20.107
-20.1038
-20.1033
-20.1272
-20.1178
-20.1098
-20.1061
-20.1054
-20.1319
-20.1218
-20.113
-20.1087
-20.1079
-20.1264
-20.1167
-20.1118
-20.1107
-20.1315
-20.1209
-20.1152
-20.1139