/*--------------------------------*- C++ -*----------------------------------*\
| =========                 |                                                 |
| \\      /  F ield         | OpenFOAM: The Open Source CFD Toolbox           |
|  \\    /   O peration     | Version:  2.3.1                                 |
|   \\  /    A nd           | Web:      www.OpenFOAM.org                      |
|    \\/     M anipulation  |                                                 |
\*---------------------------------------------------------------------------*/
FoamFile
{
    version     2.0;
    format      ascii;
    class       volScalarField;
    location    "600";
    object      p_rgh;
}
// * * * * * * * * * * * * * * * * * * * * * * * * * * * * * * * * * * * * * //

dimensions      [0 2 -2 0 0 0 0];

internalField   nonuniform List<scalar> 
6852
(
78.3322
78.334
78.3373
78.3402
78.3426
78.3274
78.3315
78.3371
78.342
78.3461
78.319
78.3261
78.3348
78.3423
78.3482
78.3092
78.3179
78.3295
78.3397
78.3473
78.3001
78.3088
78.3217
78.3336
78.3423
78.2912
78.2984
78.3116
78.3243
78.3337
78.2775
78.2844
78.2981
78.3115
78.3214
78.2677
78.2819
78.2957
78.3058
78.2488
78.2636
78.2775
78.2874
78.2286
78.2439
78.2576
78.2671
78.2083
78.2237
78.2369
78.2457
78.1887
78.2039
78.2162
78.2244
78.1707
78.1853
78.1965
78.2038
78.1548
78.1683
78.1783
78.1848
78.1411
78.1532
78.162
78.1676
78.1293
78.14
78.1477
78.1526
78.1194
78.1288
78.1356
78.1397
78.1112
78.1194
78.1254
78.1288
78.1045
78.1118
78.1169
78.1199
78.0991
78.1056
78.11
78.1128
78.0949
78.1007
78.1047
78.1071
78.0918
78.0972
78.1008
78.103
78.0898
78.0948
78.0981
78.1001
78.0887
78.0935
78.0965
78.0983
78.0886
78.0931
78.0959
78.0976
78.0892
78.0936
78.0962
78.0977
78.0905
78.0948
78.0972
78.0987
78.0924
78.0966
78.0991
78.1004
78.0947
78.0989
78.1015
78.1027
78.0974
78.1016
78.1042
78.1052
78.1004
78.1047
78.1072
78.108
78.1038
78.108
78.1104
78.1109
78.1075
78.1112
78.1133
78.1136
78.1112
78.1144
78.116
78.116
78.1148
78.1172
78.1185
78.1183
78.1181
78.1198
78.1207
78.1204
78.1212
78.1222
78.1228
78.1226
78.1243
78.1246
78.1249
78.1249
78.1275
78.1271
78.1271
78.1272
78.1309
78.1296
78.1292
78.1292
78.1344
78.132
78.1308
78.1307
78.3286
78.3324
78.3369
78.34
78.3433
78.3241
78.3302
78.3367
78.3426
78.3493
78.3103
78.3219
78.3332
78.3428
78.3522
78.2942
78.3096
78.3254
78.3388
78.3507
78.2816
78.2974
78.3154
78.3312
78.3443
78.271
78.2852
78.3038
78.3209
78.3349
78.2569
78.2707
78.2897
78.3078
78.3224
78.2398
78.2542
78.2736
78.2922
78.3072
78.2359
78.2558
78.2747
78.2896
78.2166
78.237
78.2557
78.2701
78.1975
78.2179
78.2361
78.2495
78.1796
78.1994
78.2165
78.2288
78.1635
78.1821
78.1978
78.2087
78.1495
78.1664
78.1803
78.1899
78.1373
78.1523
78.1645
78.1728
78.1269
78.14
78.1505
78.1577
78.118
78.1294
78.1383
78.1445
78.1105
78.1203
78.1279
78.1333
78.1043
78.1128
78.1192
78.124
78.0992
78.1066
78.1122
78.1163
78.0952
78.1017
78.1067
78.1101
78.0922
78.0981
78.1026
78.1052
78.0902
78.0956
78.0997
78.1018
78.0892
78.0942
78.0979
78.0996
78.0889
78.0938
78.0971
78.0986
78.0894
78.0942
78.0973
78.0985
78.0907
78.0954
78.0984
78.0994
78.0926
78.0973
78.1002
78.101
78.095
78.0999
78.1026
78.1032
78.0981
78.1029
78.1054
78.1058
78.1015
78.1062
78.1084
78.1087
78.1052
78.1094
78.1115
78.1117
78.1088
78.1125
78.1142
78.1143
78.1123
78.1154
78.1167
78.1165
78.1156
78.118
78.119
78.1185
78.1186
78.1203
78.121
78.1204
78.1214
78.1223
78.1228
78.1224
78.1241
78.1242
78.1246
78.1245
78.1269
78.1264
78.1265
78.1268
78.13
78.1285
78.1284
78.129
78.1344
78.1314
78.1304
78.1308
78.3235
78.3297
78.3353
78.3385
78.3416
78.3174
78.3265
78.3343
78.3405
78.3474
78.2989
78.3146
78.3285
78.3392
78.3487
78.2769
78.2969
78.3162
78.3317
78.3436
78.2628
78.2815
78.3022
78.32
78.3329
78.2492
78.2663
78.2871
78.306
78.3195
78.2329
78.2494
78.2705
78.2904
78.3043
78.214
78.231
78.253
78.2736
78.2878
78.1932
78.2116
78.2348
78.2561
78.2703
78.1922
78.2166
78.2383
78.2521
78.1742
78.1992
78.2207
78.2337
78.1586
78.1833
78.2039
78.2157
78.146
78.1691
78.1881
78.1985
78.1357
78.1567
78.1737
78.1825
78.1272
78.1458
78.1605
78.1679
78.1201
78.1362
78.1488
78.1547
78.114
78.1278
78.1383
78.1431
78.1088
78.1204
78.1291
78.133
78.1042
78.1141
78.1213
78.1243
78.1003
78.1087
78.1147
78.117
78.0971
78.1043
78.1093
78.1109
78.0945
78.1008
78.1051
78.1063
78.0927
78.0984
78.102
78.103
78.0916
78.0969
78.0999
78.1009
78.0912
78.0962
78.0989
78.0999
78.0916
78.0964
78.0988
78.0998
78.0927
78.0973
78.0996
78.1005
78.0944
78.0989
78.1011
78.1019
78.0966
78.1011
78.1032
78.1039
78.0994
78.1038
78.1058
78.1063
78.1025
78.1068
78.1088
78.109
78.1059
78.11
78.1118
78.1119
78.1095
78.1134
78.1149
78.1148
78.1133
78.1165
78.1175
78.1174
78.1168
78.1192
78.1196
78.1192
78.1201
78.1215
78.1215
78.1208
78.123
78.1235
78.1234
78.1226
78.1257
78.1251
78.1252
78.1245
78.1284
78.1269
78.1266
78.1267
78.1317
78.1288
78.128
78.1287
78.1376
78.1323
78.1304
78.131
78.3215
78.3284
78.3339
78.3369
78.3394
78.3155
78.3252
78.3325
78.3378
78.3433
78.2962
78.3125
78.3258
78.3353
78.3427
78.2715
78.2931
78.3121
78.3262
78.3358
78.2527
78.2743
78.2956
78.3125
78.3232
78.2351
78.2554
78.2778
78.2966
78.3081
78.216
78.2359
78.2591
78.2794
78.2916
78.1961
78.2159
78.2403
78.2618
78.2744
78.1753
78.1959
78.2216
78.2442
78.2568
78.1547
78.1769
78.2039
78.2269
78.2394
78.1599
78.1877
78.2105
78.2225
78.1459
78.1733
78.1953
78.2062
78.1354
78.1611
78.1814
78.191
78.1276
78.1507
78.1688
78.1769
78.1213
78.1417
78.1574
78.1641
78.1162
78.1338
78.1471
78.1524
78.1118
78.1268
78.1378
78.142
78.1079
78.1205
78.1296
78.1328
78.1043
78.115
78.1223
78.1248
78.1012
78.1102
78.1162
78.118
78.0985
78.1062
78.111
78.1125
78.0963
78.103
78.1069
78.1081
78.0947
78.1007
78.1039
78.1048
78.0937
78.0992
78.1019
78.1026
78.0934
78.0984
78.1008
78.1014
78.0938
78.0985
78.1006
78.1011
78.0948
78.0994
78.1013
78.1017
78.0964
78.1009
78.1026
78.103
78.0986
78.1029
78.1046
78.1048
78.1013
78.1054
78.107
78.1071
78.1043
78.1083
78.1097
78.1096
78.1076
78.1113
78.1125
78.1123
78.111
78.1143
78.1153
78.115
78.1144
78.1171
78.1179
78.1175
78.1177
78.1197
78.1199
78.1195
78.1209
78.122
78.1218
78.121
78.1239
78.124
78.1237
78.1227
78.1267
78.1257
78.1255
78.1246
78.1296
78.1275
78.1268
78.1266
78.1331
78.1293
78.128
78.1287
78.1402
78.1333
78.1306
78.1311
78.323
78.3293
78.3338
78.3362
78.3381
78.3188
78.3271
78.333
78.3371
78.3408
78.3011
78.3153
78.3264
78.3343
78.3392
78.2751
78.2957
78.3126
78.325
78.3319
78.252
78.275
78.2955
78.3111
78.3192
78.2316
78.2543
78.2769
78.2949
78.304
78.2116
78.2334
78.2581
78.2781
78.2877
78.1912
78.2135
78.2398
78.2611
78.2708
78.1708
78.1946
78.222
78.2442
78.2538
78.1512
78.1771
78.2053
78.2278
78.2369
78.1341
78.1617
78.1899
78.212
78.2205
78.1489
78.1763
78.1973
78.2048
78.1392
78.1646
78.1838
78.1901
78.1318
78.1546
78.1715
78.1766
78.1258
78.1458
78.1602
78.1641
78.1209
78.1381
78.15
78.1529
78.1165
78.1312
78.1408
78.1428
78.1126
78.1249
78.1326
78.1338
78.1089
78.1194
78.1253
78.126
78.1057
78.1144
78.119
78.1193
78.1028
78.1102
78.1138
78.1138
78.1004
78.1068
78.1095
78.1093
78.0986
78.1042
78.1063
78.106
78.0973
78.1023
78.1041
78.1038
78.0967
78.1013
78.1028
78.1025
78.0968
78.1011
78.1024
78.1021
78.0975
78.1016
78.1028
78.1026
78.0989
78.1028
78.104
78.1037
78.1008
78.1045
78.1057
78.1055
78.1031
78.1068
78.1079
78.1076
78.1059
78.1093
78.1104
78.1101
78.1089
78.112
78.113
78.1127
78.112
78.1148
78.1156
78.1152
78.1151
78.1174
78.1179
78.1173
78.1182
78.1197
78.1198
78.1191
78.1212
78.1219
78.1218
78.1208
78.124
78.124
78.1238
78.1228
78.1267
78.1257
78.1256
78.1248
78.1295
78.1276
78.1269
78.127
78.1326
78.1296
78.1284
78.1292
78.1376
78.1326
78.1307
78.1312
78.3253
78.3305
78.3344
78.3369
78.3381
78.3217
78.3292
78.3347
78.3388
78.341
78.3053
78.3182
78.3284
78.336
78.339
78.2787
78.2985
78.3151
78.3274
78.332
78.2534
78.2769
78.2982
78.3144
78.3201
78.2322
78.2565
78.2806
78.2991
78.3056
78.213
78.2372
78.263
78.283
78.2899
78.1945
78.2189
78.2457
78.2666
78.2736
78.1764
78.2015
78.2288
78.2502
78.2569
78.1586
78.185
78.2127
78.234
78.2403
78.1423
78.1701
78.1977
78.2184
78.224
78.1281
78.1572
78.1842
78.2036
78.2083
78.1475
78.1724
78.19
78.1936
78.1399
78.1622
78.1774
78.1798
78.1337
78.1531
78.1658
78.1672
78.1283
78.1449
78.1553
78.1557
78.1234
78.1374
78.1456
78.1454
78.1189
78.1306
78.137
78.1362
78.1147
78.1244
78.1293
78.1282
78.1108
78.1189
78.1226
78.1213
78.1074
78.1142
78.117
78.1156
78.1045
78.1102
78.1124
78.111
78.1021
78.1071
78.1088
78.1075
78.1004
78.1048
78.1062
78.1051
78.0994
78.1034
78.1046
78.1037
78.0991
78.1028
78.1039
78.1031
78.0994
78.103
78.104
78.1034
78.1005
78.1038
78.1049
78.1045
78.102
78.1053
78.1063
78.1061
78.1041
78.1072
78.1083
78.1081
78.1065
78.1095
78.1105
78.1103
78.1092
78.1119
78.1128
78.1126
78.112
78.1144
78.1153
78.1149
78.1149
78.1168
78.1176
78.1171
78.1177
78.119
78.1196
78.1191
78.1206
78.1212
78.1214
78.121
78.1233
78.1235
78.1234
78.1231
78.126
78.1255
78.1254
78.1253
78.1289
78.1278
78.1273
78.1274
78.1319
78.1299
78.1291
78.1294
78.1355
78.1324
78.1309
78.1309
0.641983
0.642085
0.642146
0.642163
0.64215
0.642132
0.642191
0.642237
0.642254
0.642248
0.642285
0.642311
0.642346
0.642364
0.642375
0.642439
0.642418
0.64244
0.64247
0.64251
0.642755
0.64261
0.642573
0.642603
0.642678
0.643375
0.64297
0.642788
0.642789
0.642895
0.644186
0.643481
0.643056
0.64299
0.64313
0.644956
0.643983
0.643335
0.643206
0.643372
0.645654
0.644428
0.643562
0.643336
0.643504
0.646084
0.644623
0.643576
0.643273
0.64345
0.646177
0.644516
0.64335
0.643
0.643187
0.645898
0.644104
0.642882
0.642514
0.642708
0.645351
0.643455
0.642211
0.641843
0.642038
0.644521
0.642593
0.641371
0.641017
0.641209
0.643491
0.641586
0.640419
0.640078
0.64026
0.640483
0.639392
0.639061
0.639228
0.639337
0.638324
0.637998
0.638144
0.638175
0.637239
0.636912
0.637033
0.63702
0.636152
0.635818
0.635911
0.635885
0.635073
0.634728
0.634791
0.634767
0.634005
0.633648
0.633683
0.633668
0.632953
0.632584
0.63259
0.632593
0.631923
0.631542
0.631522
0.631551
0.630926
0.630531
0.630484
0.630558
0.629972
0.629561
0.629488
0.629631
0.629077
0.628645
0.628545
0.628788
0.628252
0.627794
0.627664
0.62804
0.627509
0.627018
0.626857
0.627397
0.626858
0.626325
0.62613
0.626867
0.626297
0.625714
0.625484
0.626446
0.625818
0.625181
0.624915
0.626116
0.625412
0.624717
0.624417
0.62586
0.62507
0.624312
0.62398
0.625727
0.624787
0.623959
0.623602
0.625756
0.624566
0.623664
0.623288
0.625894
0.624442
0.623459
0.623068
0.626034
0.624405
0.6234
0.622994
0.626022
0.62449
0.62356
0.623136
0.626205
0.624971
0.624111
0.623633
0.627013
0.62584
0.624961
0.624393
0.628205
0.62704
0.626013
0.625142
0.641518
0.641799
0.641973
0.642035
0.642024
0.641478
0.641761
0.64196
0.642077
0.642135
0.641748
0.641905
0.642059
0.642175
0.642264
0.641886
0.641962
0.642099
0.642238
0.642369
0.642088
0.642044
0.64213
0.64229
0.642476
0.642579
0.642276
0.64222
0.642378
0.642616
0.64322
0.642666
0.64239
0.642497
0.642795
0.643847
0.643048
0.642562
0.642603
0.64295
0.644348
0.643319
0.642646
0.64262
0.642998
0.644624
0.643392
0.642559
0.642477
0.642877
0.644643
0.643226
0.64227
0.642151
0.642562
0.644341
0.642794
0.641772
0.641636
0.642048
0.643846
0.64217
0.641108
0.640965
0.641363
0.643112
0.641357
0.640295
0.640163
0.640536
0.64222
0.640431
0.639384
0.639263
0.639605
0.64121
0.63943
0.638422
0.638299
0.638604
0.638387
0.637432
0.637298
0.637561
0.637335
0.636431
0.636277
0.636498
0.636277
0.635425
0.635249
0.635428
0.635213
0.634417
0.634221
0.63436
0.634152
0.633408
0.633196
0.633299
0.6331
0.632406
0.632182
0.632251
0.63206
0.631421
0.631185
0.63122
0.631045
0.630463
0.630214
0.630215
0.630072
0.629545
0.62928
0.629245
0.629166
0.628681
0.628394
0.628322
0.628347
0.627885
0.627571
0.627457
0.627625
0.627172
0.626819
0.62666
0.627011
0.626553
0.626144
0.625937
0.626534
0.626027
0.625546
0.62529
0.62621
0.625583
0.625021
0.624714
0.625991
0.625204
0.624554
0.624201
0.625893
0.624876
0.624129
0.623737
0.625996
0.624607
0.623742
0.623315
0.626212
0.624406
0.62339
0.622938
0.626381
0.624348
0.623102
0.622632
0.626323
0.624378
0.622964
0.622474
0.625985
0.624411
0.623091
0.622571
0.625925
0.624802
0.623706
0.623098
0.627007
0.625963
0.624783
0.623996
0.629309
0.628118
0.626497
0.62516
0.640742
0.641258
0.641627
0.641759
0.641708
0.640437
0.640973
0.641405
0.641686
0.641792
0.640924
0.641271
0.641589
0.641828
0.64196
0.641236
0.641408
0.641652
0.641893
0.6421
0.641512
0.641512
0.641656
0.641889
0.642159
0.64203
0.641762
0.641708
0.641888
0.642191
0.642615
0.642071
0.641796
0.641891
0.642221
0.643117
0.642336
0.641846
0.641855
0.642201
0.643499
0.642487
0.641793
0.641716
0.642067
0.643654
0.642438
0.641567
0.641418
0.64177
0.643592
0.642179
0.641156
0.640946
0.641296
0.643207
0.64166
0.640542
0.640299
0.640646
0.64269
0.640988
0.639786
0.639518
0.639855
0.641961
0.640151
0.638909
0.638636
0.638957
0.641121
0.639213
0.63796
0.637697
0.637992
0.640188
0.638222
0.636969
0.636723
0.636988
0.639201
0.63721
0.635973
0.635735
0.635967
0.636185
0.634983
0.634747
0.634943
0.635158
0.634003
0.633764
0.633925
0.634124
0.633032
0.632791
0.632916
0.633084
0.632072
0.631828
0.63192
0.632043
0.631121
0.63088
0.63094
0.631011
0.630186
0.629952
0.629982
0.630007
0.629284
0.629054
0.629052
0.629062
0.628434
0.628199
0.628162
0.62823
0.627653
0.627402
0.627322
0.62754
0.62696
0.626676
0.626543
0.626987
0.626372
0.62603
0.625833
0.626584
0.625921
0.625466
0.625194
0.626399
0.62557
0.624972
0.62462
0.626469
0.625284
0.624539
0.624099
0.626727
0.62512
0.624154
0.623617
0.627111
0.625163
0.623793
0.623161
0.627614
0.625437
0.623407
0.622702
0.628089
0.625796
0.622998
0.62224
0.628256
0.625926
0.62267
0.621802
0.627754
0.625537
0.622471
0.621456
0.626452
0.624688
0.622373
0.621342
0.625034
0.623996
0.622784
0.621809
0.62537
0.624819
0.623951
0.622727
0.628078
0.627571
0.626245
0.624184
0.6399
0.640545
0.641074
0.641304
0.641179
0.639487
0.640099
0.640672
0.641096
0.641268
0.639947
0.640441
0.640901
0.641253
0.641379
0.640503
0.640748
0.641063
0.641364
0.641539
0.641036
0.641006
0.641138
0.641383
0.641643
0.641643
0.641331
0.641215
0.641352
0.641639
0.642225
0.641635
0.641273
0.641276
0.64155
0.642673
0.641838
0.641239
0.641114
0.641363
0.642978
0.641904
0.641074
0.640826
0.641044
0.643029
0.641753
0.640722
0.640369
0.64056
0.642893
0.641411
0.640193
0.639746
0.639911
0.642414
0.640794
0.639459
0.638956
0.639106
0.641869
0.640079
0.638606
0.638054
0.63819
0.641131
0.639216
0.637645
0.637071
0.637198
0.640333
0.638281
0.636646
0.636054
0.63617
0.639467
0.637291
0.635627
0.635038
0.635136
0.638569
0.636292
0.634605
0.634036
0.634112
0.637638
0.635296
0.633592
0.633051
0.633105
0.634296
0.632603
0.632088
0.63212
0.633293
0.631637
0.631146
0.631156
0.632288
0.630691
0.630228
0.630217
0.631288
0.629773
0.629336
0.629306
0.630301
0.628905
0.628478
0.628428
0.629363
0.628098
0.627665
0.627592
0.628531
0.627373
0.626911
0.626806
0.627884
0.626733
0.62623
0.626079
0.627448
0.626191
0.625634
0.625414
0.627213
0.625777
0.625139
0.624818
0.627185
0.625571
0.624731
0.624286
0.627383
0.6256
0.6244
0.62381
0.627831
0.625906
0.624141
0.623378
0.628569
0.626509
0.623891
0.622957
0.629548
0.62727
0.623663
0.622517
0.630518
0.627945
0.623639
0.62203
0.631114
0.628306
0.623835
0.621471
0.630905
0.628137
0.624126
0.620774
0.629532
0.627177
0.62391
0.620042
0.6269
0.625245
0.622902
0.619568
0.623744
0.623024
0.621785
0.619727
0.622247
0.622373
0.622098
0.620462
0.624363
0.624799
0.624496
0.621987
0.639116
0.639786
0.640405
0.640711
0.64061
0.638708
0.639295
0.639921
0.640451
0.640793
0.639112
0.639613
0.640137
0.640588
0.640815
0.639945
0.640132
0.640415
0.640719
0.640867
0.640754
0.640608
0.640621
0.640783
0.640928
0.641492
0.641053
0.640779
0.640773
0.640904
0.642077
0.641377
0.640842
0.640658
0.640749
0.642477
0.641553
0.640766
0.640412
0.640448
0.642729
0.641583
0.640541
0.640017
0.639989
0.6427
0.641378
0.640117
0.639442
0.639356
0.642519
0.641006
0.639525
0.638703
0.638566
0.641933
0.64032
0.638724
0.637796
0.637631
0.641399
0.639576
0.637823
0.636798
0.636608
0.640698
0.638692
0.636811
0.635742
0.635536
0.639992
0.637777
0.635775
0.634665
0.634455
0.639234
0.636833
0.634733
0.633595
0.633385
0.638462
0.635885
0.633696
0.632557
0.632343
0.637658
0.634928
0.632673
0.631561
0.631335
0.63682
0.633978
0.631675
0.630595
0.630361
0.633031
0.630706
0.629663
0.629423
0.632102
0.629771
0.628771
0.628524
0.631207
0.628889
0.627927
0.627667
0.630373
0.628089
0.627141
0.626861
0.629642
0.627396
0.626426
0.626113
0.62906
0.626842
0.625794
0.625428
0.628651
0.626461
0.625259
0.624813
0.628459
0.62629
0.624836
0.624271
0.628532
0.626389
0.624547
0.623803
0.628953
0.626798
0.624372
0.623402
0.629741
0.627508
0.624306
0.623044
0.630834
0.628422
0.624362
0.6227
0.632039
0.629384
0.624698
0.622353
0.633149
0.630325
0.625446
0.621974
0.633843
0.631159
0.626687
0.621408
0.633742
0.63157
0.627754
0.620618
0.632578
0.631181
0.627914
0.619583
0.630167
0.629608
0.626834
0.618624
0.626413
0.626629
0.624528
0.617753
0.621791
0.622516
0.621286
0.617398
0.617942
0.619231
0.619439
0.61747
0.618744
0.620271
0.620884
0.618761
0.638446
0.63908
0.639737
0.640136
0.640149
0.638097
0.638625
0.639255
0.639873
0.640456
0.638544
0.638961
0.639467
0.639995
0.640437
0.639723
0.639725
0.639871
0.64014
0.640391
0.640753
0.6404
0.640198
0.64022
0.640313
0.641575
0.640946
0.640431
0.640209
0.640166
0.642161
0.641312
0.640519
0.640064
0.6399
0.642533
0.641511
0.640451
0.639771
0.639488
0.642762
0.64157
0.640241
0.639325
0.638924
0.642656
0.641375
0.639832
0.638699
0.638192
0.642451
0.640998
0.639279
0.637918
0.637313
0.641769
0.64026
0.638465
0.636982
0.6363
0.6413
0.639523
0.63757
0.635961
0.635221
0.640675
0.638663
0.636573
0.634874
0.634106
0.640107
0.637833
0.635567
0.633766
0.632997
0.639496
0.636999
0.634562
0.632669
0.631915
0.638887
0.636185
0.633587
0.631606
0.63087
0.638249
0.635373
0.632633
0.630581
0.629865
0.637587
0.634556
0.631689
0.629608
0.628904
0.636887
0.633741
0.630777
0.628694
0.62799
0.632949
0.629928
0.627841
0.627127
0.632216
0.629176
0.627061
0.626323
0.631592
0.628561
0.626371
0.625586
0.631135
0.628129
0.625788
0.624923
0.630896
0.627922
0.625331
0.624339
0.630909
0.62798
0.625021
0.623831
0.631213
0.628332
0.624867
0.623394
0.631822
0.628971
0.624874
0.623025
0.632681
0.629812
0.625094
0.622719
0.633683
0.6308
0.625668
0.622461
0.634697
0.631897
0.626728
0.622224
0.635484
0.633075
0.628371
0.621902
0.635778
0.634119
0.630066
0.621356
0.635335
0.634629
0.630954
0.620517
0.633983
0.634254
0.630743
0.619711
0.631711
0.632897
0.629599
0.618928
0.628479
0.63051
0.62783
0.618157
0.624309
0.627016
0.625312
0.617115
0.619107
0.622201
0.62171
0.615874
0.613604
0.616455
0.616997
0.614719
0.612496
0.615284
0.616632
0.61536
0.637888
0.638457
0.639118
0.639617
0.639791
0.637626
0.638088
0.638697
0.63938
0.640196
0.638295
0.638569
0.638982
0.639531
0.640172
0.639859
0.639608
0.63954
0.639723
0.640081
0.641025
0.640437
0.63997
0.639809
0.639869
0.641885
0.641063
0.640263
0.639777
0.63957
0.642477
0.6415
0.640399
0.63961
0.639164
0.64283
0.641774
0.640399
0.63931
0.638637
0.64303
0.641909
0.640288
0.638874
0.637981
0.642867
0.641705
0.639986
0.638264
0.637169
0.642699
0.641336
0.639501
0.637539
0.636225
0.642002
0.640595
0.638681
0.636669
0.635148
0.641671
0.639976
0.637836
0.6357
0.634036
0.641176
0.639249
0.636918
0.634629
0.632911
0.640801
0.638603
0.636033
0.63354
0.63181
0.640382
0.637961
0.635164
0.63246
0.630741
0.639984
0.637363
0.63434
0.63141
0.629711
0.63956
0.636775
0.633547
0.630392
0.62872
0.639128
0.636208
0.632803
0.629425
0.627774
0.638671
0.635658
0.632119
0.628533
0.626879
0.638202
0.635149
0.63152
0.627727
0.626045
0.634718
0.631044
0.62703
0.625281
0.634424
0.63074
0.62647
0.624597
0.634323
0.630652
0.626075
0.623998
0.634442
0.630796
0.625873
0.623483
0.634748
0.631174
0.625914
0.623048
0.635234
0.631785
0.626269
0.62271
0.635857
0.632627
0.627001
0.622464
0.636524
0.633686
0.628225
0.622304
0.637036
0.634877
0.63
0.622099
0.637186
0.636007
0.631787
0.621698
0.636753
0.636701
0.632817
0.62118
0.635617
0.636701
0.632956
0.620758
0.633747
0.635916
0.632383
0.620505
0.631186
0.634363
0.631451
0.620567
0.628074
0.632161
0.630313
0.620802
0.624378
0.629305
0.628841
0.621025
0.620403
0.625919
0.626626
0.620051
0.615619
0.621307
0.62272
0.617224
0.611184
0.615498
0.616531
0.613593
0.606605
0.610879
0.613229
0.61272
0.637414
0.637901
0.638538
0.639118
0.639443
0.637302
0.637687
0.638242
0.638948
0.639927
0.638397
0.638473
0.638705
0.639183
0.639925
0.640256
0.639761
0.63943
0.639451
0.639819
0.641523
0.640716
0.639956
0.639551
0.639504
0.642399
0.641428
0.640317
0.639518
0.639088
0.642997
0.641978
0.640559
0.639373
0.638585
0.643303
0.642355
0.640707
0.639125
0.637985
0.64349
0.642521
0.640783
0.638771
0.637272
0.643314
0.642308
0.640572
0.638278
0.636406
0.643223
0.642036
0.640113
0.637702
0.635404
0.642532
0.641346
0.639354
0.636895
0.634278
0.642369
0.64088
0.638663
0.636021
0.633148
0.642017
0.640315
0.63792
0.63509
0.63203
0.641842
0.639894
0.637265
0.634172
0.630955
0.641608
0.639485
0.636633
0.633227
0.629919
0.641411
0.639142
0.636051
0.632267
0.628923
0.64118
0.638817
0.6355
0.631317
0.627964
0.640949
0.638522
0.634994
0.630428
0.627047
0.640684
0.638235
0.634541
0.629643
0.626176
0.640394
0.637983
0.634173
0.628969
0.625367
0.640067
0.637807
0.633931
0.628454
0.624637
0.637751
0.633874
0.628158
0.624001
0.637862
0.634056
0.628141
0.62347
0.63811
0.634458
0.628469
0.623041
0.638394
0.635088
0.629234
0.622719
0.638658
0.635918
0.630462
0.622451
0.638797
0.636905
0.631984
0.622167
0.638651
0.637842
0.633368
0.621858
0.637996
0.638353
0.634137
0.621582
0.636713
0.638328
0.634325
0.621438
0.634785
0.637694
0.634089
0.621564
0.632238
0.636418
0.633657
0.622227
0.629178
0.634536
0.633142
0.623532
0.625745
0.632108
0.632517
0.625766
0.622115
0.629251
0.631436
0.627682
0.618277
0.625994
0.629507
0.627674
0.61471
0.622771
0.627013
0.625925
0.610956
0.619009
0.62336
0.621626
0.609278
0.615558
0.617962
0.613908
0.600968
0.606808
0.610361
0.61044
0.637024
0.637398
0.637972
0.638596
0.639041
0.63718
0.63746
0.637908
0.638564
0.639597
0.638858
0.638669
0.638628
0.638927
0.639634
0.640872
0.640141
0.639506
0.639286
0.639533
0.6422
0.641209
0.640134
0.639423
0.639157
0.643082
0.642051
0.640624
0.639442
0.63869
0.643635
0.642743
0.64106
0.639397
0.638163
0.643884
0.643147
0.64145
0.639289
0.637559
0.64408
0.643334
0.641678
0.639123
0.636844
0.643878
0.643175
0.641473
0.638846
0.635955
0.643871
0.642978
0.641111
0.63841
0.634913
0.643199
0.642333
0.640441
0.637672
0.633775
0.643185
0.64202
0.639923
0.636923
0.632666
0.642922
0.641606
0.639379
0.636152
0.631587
0.642868
0.641396
0.638985
0.635462
0.630573
0.642739
0.641187
0.63864
0.634834
0.629606
0.642629
0.641063
0.638371
0.634279
0.628679
0.642482
0.640953
0.63813
0.633759
0.627779
0.642319
0.640866
0.637906
0.633233
0.6269
0.642078
0.640736
0.637679
0.632693
0.626056
0.641771
0.640625
0.637517
0.632279
0.625273
0.641387
0.640551
0.63747
0.632072
0.624568
0.640915
0.640534
0.637608
0.63216
0.623957
0.640563
0.637969
0.63258
0.623436
0.640533
0.63848
0.633301
0.622989
0.640349
0.639038
0.634092
0.622594
0.639881
0.639454
0.634651
0.622275
0.639036
0.639677
0.635074
0.622095
0.637683
0.63954
0.635289
0.622109
0.635726
0.638941
0.63533
0.622482
0.63312
0.637772
0.635206
0.623481
0.629904
0.636028
0.635075
0.625333
0.626189
0.633687
0.634816
0.628408
0.622177
0.630778
0.633896
0.630954
0.618098
0.627389
0.631849
0.630925
0.614195
0.623805
0.62909
0.629226
0.61055
0.620253
0.626045
0.62675
0.607552
0.61723
0.623272
0.624068
0.605019
0.614454
0.620467
0.620918
0.604404
0.613115
0.6173
0.61438
0.596138
0.602891
0.607591
0.608566
0.636749
0.636976
0.637426
0.638029
0.638547
0.637378
0.637483
0.63773
0.638227
0.639179
0.639617
0.639097
0.63871
0.63873
0.639267
0.641672
0.640708
0.639731
0.639191
0.639189
0.642994
0.641902
0.6405
0.639411
0.638813
0.643831
0.642925
0.641215
0.639564
0.638376
0.644319
0.643675
0.641955
0.63972
0.637909
0.644506
0.644068
0.642556
0.639863
0.637368
0.644646
0.644296
0.642798
0.64
0.636699
0.644388
0.644114
0.642639
0.639917
0.635808
0.644455
0.64395
0.642365
0.639554
0.634779
0.64378
0.643334
0.64177
0.638874
0.633692
0.643823
0.643115
0.641408
0.638271
0.632667
0.643495
0.642773
0.641038
0.637698
0.631685
0.643373
0.642681
0.640855
0.637261
0.630778
0.643121
0.642533
0.640711
0.636901
0.629909
0.642905
0.642459
0.640636
0.636614
0.629066
0.642619
0.642367
0.640569
0.636349
0.628228
0.642282
0.642268
0.640514
0.636105
0.627395
0.641841
0.642111
0.640423
0.635896
0.626577
0.641293
0.641926
0.640377
0.635748
0.625791
0.640607
0.641702
0.640383
0.635664
0.625058
0.639748
0.641424
0.640462
0.635684
0.624407
0.638649
0.641039
0.640583
0.635812
0.623865
0.640456
0.640698
0.636034
0.62347
0.639571
0.64069
0.636241
0.623261
0.638268
0.640423
0.636359
0.623319
0.636455
0.639832
0.636475
0.623882
0.63403
0.638803
0.636597
0.625082
0.630923
0.637211
0.636673
0.627298
0.627143
0.634993
0.636598
0.630731
0.622782
0.632064
0.63576
0.633496
0.618051
0.628444
0.633631
0.633268
0.613292
0.624404
0.63063
0.631262
0.608849
0.620267
0.627164
0.628406
0.604978
0.616352
0.623603
0.625219
0.601799
0.612916
0.620275
0.622098
0.599603
0.610391
0.61765
0.619415
0.598729
0.608867
0.615696
0.617043
0.598561
0.608498
0.614762
0.614701
0.594937
0.601716
0.606089
0.607381
0.636699
0.636706
0.636945
0.637427
0.637936
0.637998
0.63781
0.637722
0.637929
0.638667
0.64054
0.639688
0.638905
0.638563
0.638805
0.642569
0.641451
0.640085
0.639147
0.63878
0.643778
0.642797
0.64107
0.639515
0.638475
0.644545
0.64392
0.642125
0.639905
0.638155
0.644956
0.644648
0.643165
0.640383
0.637825
0.645027
0.645043
0.643794
0.640921
0.637407
0.645049
0.64519
0.644051
0.64135
0.636805
0.644673
0.644912
0.64392
0.641319
0.635951
0.644775
0.644724
0.643669
0.640942
0.635056
0.643982
0.644089
0.643108
0.64033
0.634136
0.643844
0.643851
0.642833
0.639909
0.633344
0.643207
0.643426
0.642559
0.63957
0.632627
0.64277
0.64321
0.642484
0.639387
0.631988
0.642166
0.642918
0.64238
0.639256
0.631353
0.641593
0.642667
0.642318
0.639157
0.630686
0.640929
0.642365
0.642214
0.638986
0.629951
0.640199
0.642025
0.64208
0.63876
0.629151
0.639354
0.641618
0.641914
0.638502
0.628316
0.638383
0.641149
0.64175
0.63826
0.6275
0.637248
0.64059
0.641573
0.638019
0.626774
0.635903
0.639911
0.641393
0.637865
0.626223
0.634273
0.639043
0.641167
0.637811
0.62594
0.632258
0.637892
0.640826
0.637855
0.626042
0.636343
0.640255
0.637956
0.626627
0.634287
0.639349
0.638117
0.627852
0.631618
0.637988
0.638289
0.630424
0.62824
0.636023
0.63816
0.633659
0.624109
0.633287
0.637148
0.635664
0.619299
0.629755
0.63498
0.634983
0.614024
0.62557
0.631961
0.632844
0.60862
0.620974
0.628357
0.629845
0.603487
0.616278
0.62444
0.626386
0.598994
0.611822
0.620489
0.622795
0.595375
0.60791
0.616767
0.61932
0.592774
0.604814
0.613572
0.616233
0.591477
0.602931
0.6113
0.61381
0.592175
0.602709
0.610154
0.612098
0.59454
0.604023
0.610356
0.610964
0.596293
0.603152
0.606419
0.606912
0.637013
0.636702
0.636597
0.636815
0.637223
0.639007
0.638394
0.637842
0.637646
0.638047
0.641445
0.640396
0.639174
0.6384
0.638234
0.64336
0.642298
0.640537
0.639133
0.638301
0.644449
0.643753
0.641871
0.639747
0.63815
0.645099
0.644848
0.643327
0.640504
0.638035
0.645355
0.645565
0.644451
0.641475
0.637913
0.64524
0.645841
0.645045
0.642421
0.637638
0.645115
0.645818
0.645285
0.642924
0.63711
0.644558
0.64537
0.645086
0.642791
0.636441
0.644606
0.645089
0.644784
0.642418
0.635883
0.643352
0.644287
0.644213
0.641943
0.635468
0.642838
0.643845
0.643904
0.641745
0.635344
0.641643
0.643113
0.643546
0.641638
0.635366
0.640638
0.642523
0.643309
0.641618
0.635442
0.639435
0.641838
0.643039
0.641581
0.635404
0.638267
0.641179
0.642786
0.641525
0.635165
0.637015
0.640464
0.642465
0.641294
0.634678
0.635721
0.639722
0.642119
0.641001
0.633999
0.634344
0.638927
0.641742
0.640664
0.633214
0.632875
0.638073
0.641349
0.640334
0.632487
0.631274
0.637127
0.640923
0.64006
0.631996
0.629487
0.636037
0.640434
0.639874
0.631912
0.627429
0.634722
0.639823
0.639786
0.632414
0.624993
0.633074
0.638999
0.639761
0.63366
0.622054
0.630965
0.637825
0.639644
0.635559
0.628262
0.636135
0.639098
0.637308
0.624859
0.63378
0.637735
0.637253
0.620713
0.630719
0.635642
0.635985
0.615849
0.626933
0.632839
0.6338
0.610417
0.622521
0.629457
0.630952
0.60468
0.617634
0.625597
0.627566
0.599024
0.612554
0.621465
0.623892
0.593876
0.607626
0.617295
0.620152
0.589594
0.6032
0.613338
0.616564
0.586357
0.599535
0.609796
0.61328
0.584281
0.596847
0.606912
0.610502
0.58361
0.595478
0.604973
0.608344
0.585186
0.596062
0.604432
0.607131
0.589099
0.598809
0.605315
0.606642
0.593024
0.600542
0.604994
0.605777
0.637721
0.637031
0.636429
0.636227
0.636439
0.640064
0.639102
0.638004
0.637329
0.637291
0.642189
0.641122
0.639477
0.63821
0.637551
0.643912
0.643045
0.641119
0.639151
0.637761
0.644848
0.644533
0.642906
0.640133
0.637842
0.645325
0.645616
0.644566
0.641459
0.63801
0.64533
0.646203
0.645621
0.642971
0.638117
0.64495
0.646235
0.646178
0.644049
0.637977
0.644592
0.645963
0.646281
0.644396
0.637657
0.643762
0.645287
0.645922
0.644179
0.637524
0.643606
0.644823
0.645473
0.643919
0.637712
0.641694
0.643644
0.644733
0.643584
0.63802
0.640526
0.642764
0.644185
0.643432
0.638483
0.638518
0.641475
0.643506
0.643257
0.638896
0.6367
0.64028
0.642864
0.643017
0.63924
0.63467
0.638965
0.642159
0.642709
0.639471
0.632707
0.637687
0.641467
0.642371
0.63962
0.630712
0.636389
0.640755
0.641992
0.639682
0.628748
0.635112
0.640051
0.641611
0.639693
0.626788
0.633835
0.639341
0.641211
0.639594
0.624832
0.632551
0.638618
0.640801
0.639432
0.62284
0.631213
0.637845
0.640362
0.639258
0.62075
0.629759
0.636961
0.639839
0.639007
0.618465
0.628088
0.635881
0.639162
0.638644
0.615864
0.62608
0.634498
0.638237
0.638105
0.612808
0.6236
0.632685
0.636935
0.637228
0.609167
0.620522
0.630326
0.635133
0.635813
0.616762
0.627349
0.632801
0.633837
0.612288
0.62371