/*--------------------------------*- C++ -*----------------------------------*\
| =========                 |                                                 |
| \\      /  F ield         | OpenFOAM: The Open Source CFD Toolbox           |
|  \\    /   O peration     | Version:  2.3.1                                 |
|   \\  /    A nd           | Web:      www.OpenFOAM.org                      |
|    \\/     M anipulation  |                                                 |
\*---------------------------------------------------------------------------*/
FoamFile
{
    version     2.0;
    format      ascii;
    class       surfaceScalarField;
    location    "600";
    object      phi;
}
// * * * * * * * * * * * * * * * * * * * * * * * * * * * * * * * * * * * * * //

dimensions      [0 3 -1 0 0 0 0];

internalField   nonuniform List<scalar> 
18519
(
0.000600191
-9.73199e-05
0.000490094
0.000266584
-1.71791e-05
0.000350786
3.75347e-05
-1.17385e-05
0.000240788
-5.49184e-05
-8.94565e-05
0.00018191
-0.000142281
8.73629e-05
0.00205066
-0.000256317
0.000726677
0.00143754
-2.68149e-05
0.000622757
0.000823697
8.82465e-05
0.000513857
0.000268178
6.81229e-05
0.00039794
-3.78827e-05
0.000163781
0.00261544
-0.000298794
0.000637693
0.00194005
1.77e-05
0.000630879
0.00122562
0.000233181
0.000569489
0.000500654
0.000326955
0.000466138
0.000221808
0.000240964
0.00304278
3.56778e-05
0.000325731
0.00227199
0.000309677
0.000478806
0.00144038
0.000530371
0.000534424
0.000598128
0.000666077
0.000503131
0.000509611
0.000310326
0.00332359
0.000639157
6.21383e-05
0.00250403
0.000805257
0.000323976
0.00159743
0.000957075
0.000479904
0.000670994
0.00106277
0.00052974
0.000790204
0.000390401
0.00350321
0.00130453
1.31653e-06
0.00266089
0.00136348
0.000284091
0.00171044
0.00143425
0.000473283
0.000725947
0.00148315
0.000564105
0.0010579
0.000458246
0.00354837
4.56891e-05
0.00270411
0.00189603
0.000311718
0.00174249
0.00189736
0.000498507
0.000739661
0.0018875
0.000598475
0.00129461
0.00050296
0.00265755
0.00237304
0.000358832
0.00170594
0.00231657
0.000532406
0.000716765
0.00225217
0.000624504
0.0014881
0.000523277
0.00253962
0.00278077
0.000411964
0.0016142
0.00267631
0.000565672
0.000664861
0.00256248
0.000639037
0.00163089
0.000522064
0.00236037
0.00310868
0.000463756
0.0014779
0.00296602
0.000592755
0.000591439
0.00280836
0.000640578
0.00171949
0.000502838
0.00213302
0.00334959
0.000509543
0.00130916
0.00317998
0.000609897
0.000504413
0.0029846
0.000628509
0.00175491
0.000468999
0.00186683
0.00349533
0.000545481
0.00111784
0.00331474
0.000614234
0.000410212
0.00308935
0.000602879
0.00174151
0.000423606
0.00158204
0.00355111
0.00056564
0.000917962
0.00337502
0.000603798
0.000315925
0.00312662
0.000564764
0.00168757
0.000369868
0.00129631
0.00353051
0.000567723
0.000721432
0.00337091
0.00057899
0.000226946
0.00310455
0.000516557
0.00160328
0.000311234
0.00102354
0.00345108
0.000552694
0.000537234
0.00331513
0.000542085
0.000146883
0.00303338
0.000461523
0.00149909
0.000251077
0.000772602
0.00333022
0.000523742
0.000370887
0.00322043
0.000496418
7.76917e-05
0.00292339
0.000403181
0.00138451
0.000192273
0.000547732
0.00318308
0.000484931
0.000224639
0.0030979
0.000445615
2.08849e-05
0.00278197
0.000345178
0.00126874
0.00013666
0.000349808
0.00302132
0.000440273
9.88175e-05
0.00295593
0.000392961
-2.46176e-05
0.00261552
0.000289883
0.00115796
8.6158e-05
0.000177742
0.00285282
0.000393127
-5.993e-06
0.00279853
0.000341139
-6.24737e-05
0.00243431
0.000237687
0.0010528
4.26817e-05
2.9354e-05
0.00268196
0.000345994
-9.15085e-05
0.00262829
0.000291102
-9.28472e-05
0.00224634
0.000189316
0.000953875
6.08208e-06
-9.73038e-05
0.00250976
0.000299841
-0.00016143
0.00244807
0.000244348
-0.000116038
0.00205572
0.000145221
0.000859829
-2.19911e-05
-0.000204964
0.00233505
0.000256218
-0.000219411
0.00226047
0.000202043
-0.000133979
0.00186467
0.00010562
0.000766607
-4.07569e-05
-0.00029749
0.00215677
0.000216443
-0.000268262
0.00206711
0.000164135
-0.00014858
0.00167338
7.16107e-05
0.000672386
-5.43588e-05
-0.00037861
0.00197378
0.000180827
-0.000310129
0.00186881
0.00012982
-0.000161094
0.00148104
4.33015e-05
0.000575998
-6.47046e-05
-0.000451231
0.00178479
0.000149223
-0.000346976
0.00166538
9.91754e-05
-0.000172712
0.00128856
1.8224e-05
0.000476189
-7.2903e-05
-0.000517667
0.0015884
0.000121329
-0.000380229
0.00145684
7.11008e-05
-0.000185011
0.0011002
-6.86485e-06
0.000371487
-8.0308e-05
-0.000580761
0.00138456
9.59412e-05
-0.000412921
0.00124458
4.44206e-05
-0.000197701
0.000916158
-3.11761e-05
0.000260801
-8.7015e-05
-0.000642759
0.00117563
7.12304e-05
-0.000449206
0.00103424
1.67893e-05
-0.000210987
0.000731147
-5.32068e-05
0.000142719
-9.2905e-05
-0.000704342
0.000966867
4.44747e-05
-0.00048996
0.000834363
-1.45079e-05
-0.00022669
0.000542211
-7.43335e-05
1.48397e-05
-9.88096e-05
-0.000766987
0.000770339
1.0964e-05
-0.000529093
0.000644553
-4.80825e-05
-0.00023969
0.000349167
-9.63583e-05
-0.000115572
-0.000109278
-0.000824284
0.000593116
-2.92395e-05
-0.000557236
0.000459109
-8.16048e-05
-0.000242639
0.000154855
-0.000120285
-0.000233083
-0.000125127
-0.000860463
0.000428233
-6.88277e-05
-0.000566942
0.000278067
-0.000112478
-0.000233684
-3.53203e-05
-0.000143081
-0.000326121
-0.000140645
-0.000854954
0.000267086
-0.000102098
-0.000538063
9.90112e-05
-0.000137835
-0.000204423
-0.000213104
-0.000155857
-0.000390452
-0.000140091
-0.000800354
0.000107776
-0.00012767
-0.000470937
-7.46238e-05
-0.000155781
-0.000156269
-0.000371905
-0.000155867
-0.000431727
-0.000114994
-0.000699624
-4.53982e-05
-0.000146364
-0.000379511
-0.00023217
-0.000162566
-0.000100121
-0.000510567
-0.000140727
-0.000459958
-7.18889e-05
-0.00056116
-0.000179449
-0.000157889
-0.000272403
-0.00036374
-0.000157186
-4.97652e-05
-0.000614886
-0.000118318
-0.000478401
-3.1322e-05
-0.000390976
-0.000287591
-0.000165716
-0.000150433
-0.000460417
-0.000143864
-7.456e-06
-0.000661084
-9.67788e-05
-0.0004798
-6.05642e-06
-0.000184163
-0.000362598
-0.000174219
-1.29218e-05
-0.000503987
-0.00012767
3.50957e-05
-0.000630471
-7.86303e-05
-0.000450579
5.87525e-06
4.92006e-05
-0.00037961
-0.000200338
0.000134602
-0.000460818
-0.00012857
8.23512e-05
-0.000512658
-6.55611e-05
-0.000366176
-2.05057e-06
0.000265526
-0.000278821
-0.000264445
0.000264784
-0.000294417
-0.000165659
0.000134456
-0.000293491
-8.8837e-05
-0.000205073
-2.66469e-05
0.000348392
-0.000363559
0.000293805
-0.00023983
0.000144809
-0.000144495
-6.02631e-05
0.00111139
7.29175e-05
0.000974752
0.000582511
0.000133036
0.000746625
0.0001485
0.000115597
0.000559203
-6.50612e-05
-4.41324e-05
0.000439604
-0.00025789
0.000280193
0.00276964
7.96514e-05
0.00126621
0.00213902
0.000269443
0.00111697
0.00146397
0.000342204
0.000962306
0.000711776
0.000270452
0.000835545
2.20872e-05
0.00059558
0.00318406
0.000239282
0.000996134
0.00255148
0.000488966
0.00104394
0.00182324
0.000631206
0.00100872
0.000975868
0.000652218
0.000931743
0.00049904
0.000739879
0.00337435
0.000673339
0.000402013
0.00270595
0.000886721
0.000749451
0.00191216
0.00103209
0.00092733
0.000992215
0.00109215
0.000983142
0.00094522
0.000856361
0.00349859
0.00122625
-1.01196e-05
0.00281729
0.00138147
0.000510517
0.00197619
0.0014972
0.000855906
0.00100388
0.00155364
0.00104056
0.00135281
0.000986685
0.00365977
0.00185243
-0.000144338
0.00296
0.00194087
0.000424459
0.00207084
0.00200767
0.000851977
0.00103921
0.00203279
0.00111659
0.00174065
0.00110962
0.0037626
0.00248715
-0.000120338
0.00305643
0.00251611
0.000442653
0.0021397
0.00252935
0.000893553
0.00106631
0.00251138
0.00119328
0.00210691
0.001203
0.00379659
-3.72395e-05
0.00309001
0.00307096
0.00051056
0.0021634
0.00303334
0.000955019
0.001071
0.00297063
0.00125765
0.00244283
0.00125836
0.00305031
0.00358192
0.000598796
0.00213211
0.00349781
0.0010194
0.00104582
0.00339349
0.00130247
0.00273628
0.00127444
0.00293881
0.00402983
0.000693603
0.0020467
0.00390565
0.00107703
0.000990657
0.00376565
0.00132445
0.00297595
0.00125382
0.00276809
0.00440133
0.000786546
0.00191648
0.00424592
0.00112123
0.000910849
0.00407765
0.00132215
0.0031545
0.0012013
0.00255058
0.0046859
0.00086938
0.00175223
0.00451206
0.00114645
0.000813154
0.00432419
0.00129541
0.00326893
0.00112233
0.00230614
0.00488556
0.000929699
0.00156817
0.00470569
0.00114815
0.000705803
0.00450584
0.00124548
0.00332155
0.00102305
0.00205091
0.00500944
0.000962292
0.00137625
0.00483351
0.00112583
0.000595717
0.00462715
0.00117578
0.00331834
0.000910158
0.00179665
0.00506955
0.000966866
0.00118542
0.00490475
0.00108206
0.000488071
0.00469492
0.0010911
0.00326721
0.000790285
0.00155086
0.00507805
0.000946762
0.00100156
0.00492919
0.00102129
0.000386306
0.00471662
0.000996736
0.00317643
0.000669353
0.00131778
0.00504613
0.000907015
0.00082797
0.00491601
0.000948611
0.000292525
0.00469939
0.000897849
0.00305355
0.000552073
0.0010993
0.00498329
0.000853193
0.000666184
0.00487314
0.000868944
0.000207348
0.00464946
0.000798645
0.00290477
0.000442281
0.000895843
0.0048972
0.000790422
0.0005167
0.00480692
0.000786503
0.00013069
0.00457148
0.000701679
0.00273504
0.000343103
0.000706872
0.0047937
0.000722952
0.000378834
0.00472174
0.000704318
6.27518e-05
0.00446845
0.000608427
0.00254709
0.000256784
0.000530718
0.00467673
0.000653947
0.000251662
0.00462052
0.00062462
6.7691e-06
0.00433779
0.000520774
0.0023502
0.000181669
0.000365793
0.00454886
0.000585859
0.000134717
0.00450478
0.000548868
-3.74852e-05
0.00417636
0.000439257
0.00215469
0.000117269
0.000210686
0.00441175
0.000520458
2.85691e-05
0.00437333
0.000477694
-7.50026e-05
0.00398764
0.000363897
0.00196136
6.39665e-05
6.36366e-05
0.00426622
0.000458771
-6.71611e-05
0.00422317
0.000410785
-0.000107141
0.00377575
0.000295178
0.00176944
2.00789e-05
-7.58337e-05
0.00411177
0.000400586
-0.000153668
0.0040518
0.000348375
-0.00013463
0.00354193
0.000233006
0.00157803
-1.61241e-05
-0.000207582
0.00394629
0.000346072
-0.000232693
0.00385753
0.000290479
-0.000158331
0.00328365
0.000177049
0.00138473
-4.53414e-05
-0.000332327
0.00376705
0.000295085
-0.000305604
0.00363854
0.000236689
-0.000179658
0.00299976
0.000126767
0.00118611
-6.80526e-05
-0.000450534
0.00357088
0.000246898
-0.000372561
0.00339089
0.000186473
-0.000199707
0.00269185
8.18533e-05
0.000978626
-8.51271e-05
-0.000562491
0.00335358
0.000200371
-0.000433581
0.00310841
0.000139064
-0.000218782
0.00236082
4.18937e-05
0.000758342
-9.73071e-05
-0.000665711
0.00310567
0.000154467
-0.000487913
0.00278917
9.33525e-05
-0.000237603
0.00200938
4.78021e-06
0.000518542
-0.00010708
-0.000756183
0.00281843
0.000108214
-0.000534404
0.0024372
4.85894e-05
-0.000256752
0.00164215
-3.07076e-05
0.000252159
-0.000115496
-0.000828971
0.00249449
6.09532e-05
-0.000572188
0.00206497
2.96826e-06
-0.000275602
0.0012673
-6.48217e-05
-3.98564e-05
-0.00012423
-0.000876004
0.00214717
1.08229e-05
-0.000590064
0.0016861
-4.49071e-05
-0.00027358
0.000897129
-0.000102167
-0.000303562
-0.000149964
-0.000890987
0.00179191
-4.12707e-05
-0.000579772
0.0013102
-9.10887e-05
-0.000244352
0.000542233
-0.00013639
-0.000494528
-0.00016838
-0.000868224
0.00143967
-9.04865e-05
-0.000539928
0.000947192
-0.000127856
-0.000195378
0.000203786
-0.000146829
-0.000630427
-0.000131367
-0.000800617
0.00110122
-0.000134821
-0.000465288
0.000609802
-0.000155125
-0.00013571
-9.92754e-05
-0.000144834
-0.00071125
-8.62083e-05
-0.000683261
0.000788021
-0.000175532
-0.000354155
0.000314746
-0.000177913
-7.55084e-05
-0.000322499
-0.0001522
-0.000729711
-6.31029e-05
-0.000511351
0.000511818
-0.000213623
-0.000211413
7.88066e-05
-0.000191669
-6.71892e-06
-0.000445835
-0.000159987
-0.000679292
-5.12617e-05
-0.000251664
0.000263626
-0.000262164
1.89433e-07
-9.41248e-05
-0.000207491
8.22792e-05
-0.000445244
-0.00014824
-0.000544328
-5.47342e-05
0.000115971
4.93062e-05
-0.000357917
0.000257542
-0.000147495
-0.000253859
0.000182229
-0.000300222
-0.000158547
-0.000317358
-7.13868e-05
0.000525214
-0.000523168
0.000501036
-0.000363146
0.000281173
-0.000224853
-9.64476e-05
0.00113894
0.000419509
0.00110732
0.00060068
0.000409708
0.000875174
0.000133784
0.000331817
0.000694283
-8.91197e-05
0.000102814
0.000559695
-0.000181361
0.000372435
0.00255768
0.000834053
0.00137718
0.00197449
0.000877103
0.00123276
0.00136783
0.000804428
0.00109636
0.000687651
0.000602122
0.00101642
0.000238548
0.000863323
0.0027664
0.00127253
0.00101908
0.00222596
0.0013555
0.00110598
0.00161023
0.00130393
0.00112495
0.000883131
0.00113662
0.00112435
0.000833545
0.00102801
0.00256853
0.00166501
0.000438083
0.00207021
0.00179116
0.00081211
0.00148681
0.00177461
0.00104005
0.000786803
0.00164511
0.00117466
0.00133969
0.00113701
0.00244267
0.00205285
7.56881e-05
0.00192899
0.00220283
0.000612523
0.00135325
0.00221305
0.000993219
0.000686032
0.0021083
0.00124459
0.00176005
0.00125236
0.00243993
0.00250371
-7.64316e-05
0.00188565
0.00264175
0.000539833
0.00128926
0.0026492
0.00101221
0.000625559
0.00254744
0.00134115
0.00212595
0.00136928
0.00245614
0.00299019
-8.37073e-05
0.00188379
0.00309732
0.000559429
0.00126746
0.00308416
0.00107492
0.000593568
0.00297044
0.00144418
0.00245547
0.00146705
0.0024538
0.00347974
-2.08747e-05
0.00188208
0.00354862
0.000630979
0.00125595
0.00350792
0.00115739
0.000572371
0.00337526
0.0015364
0.00275364
0.00153256
0.00239802
7.49122e-05
0.00184726
0.0039732
0.000724983
0.00122813
0.00390546
0.00124098
0.000546446
0.00375314
0.00160628
0.00301565
0.00155887
0.00176537
0.00434947
0.000827758
0.00117109
0.00426116
0.00131561
0.000507842
0.00409346
0.00164737
0.00323287
0.00154444
0.00164028
0.00466085
0.000931603
0.00108544
0.00456439
0.00137284
0.000456233
0.00438802
0.0016568
0.00339786
0.00149254
0.00148606
0.00490222
0.00102188
0.000979393
0.0048111
0.00140641
0.000395293
0.00463204
0.00163549
0.00350672
0.00140877
0.00132444
0.00508357
0.00108825
0.000865009
0.00500522
0.00141346
0.00033082
0.00482574
0.00158597
0.00356045
0.00130014
0.00116573
0.00521571
0.00112628
0.000749945
0.0051529
0.00139394
0.000267148
0.00497189
0.00151242
0.00356336
0.0011744
0.00101525
0.00530844
0.00113674
0.000638856
0.00526059
0.00135076
0.000207116
0.00507447
0.00142027
0.00352155
0.00103921
0.000874336
0.005369
0.00112216
0.000533941
0.00533404
0.00128824
0.000152256
0.00513769
0.0013152
0.00344175
0.000901407
0.000742723
0.00540276
0.00108678
0.000435909
0.00537809
0.00121137
0.000103242
0.00516555
0.00120265
0.00333058
0.00076649
0.000619286
0.00541366
0.00103551
0.000344579
0.00539671
0.00112504
6.01496e-05
0.00516139
0.00108723
0.00319439
0.00063862
0.000502646
0.00540458
0.000973094
0.000259376
0.00539296
0.00103353
2.31486e-05
0.00512676
0.000972532
0.00304024
0.000520395
0.000391363
0.00537775
0.000903724
0.000179413
0.00536898
0.000940239
-7.20976e-06
0.00506064
0.000861169
0.00287649
0.000413324
0.000284136
0.00533483
0.000830756
0.000104037
0.00532595
0.000847752
-3.19655e-05
0.00496279
0.000754626
0.00270784
0.000318361
0.000179865
0.00527699
0.000756812
3.31119e-05
0.00526353
0.000758047
-5.3959e-05
0.00483534
0.000653782
0.00253549
0.000235656
7.74348e-05
0.00520517
0.000683842
-3.35741e-05
0.00517996
0.000672264
-7.44008e-05
0.00468093
0.000559129
0.00235999
0.000165069
-2.35359e-05
0.00511962
0.000612993
-9.68247e-05
0.00507342
0.000590622
-9.36317e-05
0.00450166
0.000471262
0.00218053
0.000105907
-0.000122994
0.00501936
0.000544563
-0.000157223
0.00494262
0.000513402
-0.000111979
0.00429882
0.000390594
0.0019956
5.68259e-05
-0.000220891
0.00490293
0.000478958
-0.000215014
0.00478643
0.000440785
-0.000129618
0.00407325
0.000317225
0.00180435
1.62851e-05
-0.000316789
0.00476853
0.000416388
-0.000270211
0.00460378
0.000372764
-0.000146592
0.00382539
0.000251006
0.00160653
-1.68175e-05
-0.000410066
0.004614
0.000356774
-0.000322746
0.00439362
0.000309317
-0.000162884
0.00355571
0.000191681
0.00140165
-4.31321e-05
-0.000499873
0.00443664
0.000299893
-0.000372446
0.00415475
0.000250499
-0.000178453
0.00326453
0.000139072
0.00118899
-6.31047e-05
-0.000585013
0.00423323
0.000245806
-0.000419025
0.00388579
0.000196329
-0.000192616
0.00294971
9.31934e-05
0.000966652
-7.73536e-05
-0.000663726
0.00400006
0.000194858
-0.00046164
0.0035854
0.000146898
-0.000205325
0.00260882
5.38683e-05
0.00073063
-8.47987e-05
-0.000733605
0.00373348
0.000147341
-0.000497784
0.00324999
0.000102551
-0.000217153
0.00224273
2.06431e-05
0.000475357
-8.61095e-05
-0.000789805
0.00342774
0.000103367
-0.000524676
0.00287795
6.20066e-05
-0.000228742
0.00185323
-8.6096e-06
0.000180766
-8.41141e-05
-0.000824978
0.0030796
6.20437e-05
-0.00053704
0.00247475
2.41766e-05
-0.000233562
0.00144901
-3.56461e-05
-0.000130596
-9.0579e-05
-0.000830011
0.00269284
2.24393e-05
-0.000522099
0.00204889
-9.91066e-06
-0.000204029
0.0010399
-5.57895e-05
-0.000375457
-9.05335e-05
-0.000798533
0.00227725
-1.70848e-05
-0.000476741
0.00161351
-4.15392e-05
-0.000151638
0.000641027
-7.10586e-05
-0.000526233
-8.70696e-05
-0.000724551
0.00184752
-5.84019e-05
-0.000403509
0.00118971
-7.51551e-05
-9.85996e-05
0.000277668
-9.37501e-05
-0.000600302
-8.76324e-05
-0.000594454
0.0014205
-0.000101861
-0.000292348
0.000805202
-0.000109264
-3.29135e-05
-2.03152e-05
-0.000121437
-0.00059543
-8.90467e-05
-0.000377256
0.000996591
-0.000149814
-8.62494e-05
0.000449828
-0.000143122
6.51448e-05
-0.000181971
-0.000137978
-0.000496829
-8.81891e-05
-1.18226e-05
0.000521597
-0.000211689
0.000200435
0.000163905
-0.000180192
0.000174515
-0.000167802
-0.000146794
-0.00030544
-8.82608e-05
0.000530786
-0.000293173
0.000559072
-0.000227527
0.000325082
-0.000158664
-7.68051e-05
0.000984912
0.000732712
0.000905184
0.000475385
0.000651932
0.000732769
4.59833e-05
0.000516874
0.000606811
-0.000127896
0.000245808
0.000487767
-6.78796e-05
0.000312419
0.00205
0.00152947
0.00110022
0.00151545
0.00140695
0.00101229
0.000997676
0.00119114
0.000939866
0.000469331
0.000872012
0.000918561
0.000424318
0.000840457
0.00213136
0.00223472
0.000787298
0.00164547
0.00210617
0.000892651
0.0011465
0.00185127
0.000963803
0.000602939
0.00150803
0.00103189
0.00106044
0.000994829
0.0017974
0.00272774
0.000390007
0.0013701
0.00265893
0.000686651
0.000940932
0.00241241
0.000908071
0.000470432
0.00207373
0.00107946
0.00159342
0.00107447
0.0014558
0.00311011
0.000174082
0.00104635
0.00311066
0.000570247
0.000680477
0.00288213
0.000889378
0.000308132
0.00255188
0.00113878
0.0020131
0.00114081
0.00118155
0.00347218
9.7263e-05
0.000770135
0.00351351
0.000548398
0.000454902
0.00329138
0.000918194
0.000170334
0.0029663
0.0012113
0.002347
0.00120571
0.000939621
0.00383859
0.00011261
0.000545798
0.00388711
0.000579648
0.000280537
0.00365909
0.000972463
6.74197e-05
0.00333633
0.00128726
0.00262145
0.00126002
0.000710007
0.00421005
0.000164449
0.000362902
0.00423249
0.000632703
0.000150097
0.00399302
0.00103627
-4.72873e-06
0.00367063
0.00135693
0.00285462
0.00129466
0.000481616
0.00456414
0.000227947
0.00020657
0.00454053
0.000691987
4.88031e-05
0.00429267
0.0010991
-5.70335e-05
0.00397137
0.00141137
0.00305246
0.001304
0.000248032
0.00029781
6.58594e-05
0.00479754
0.000752928
-3.54246e-05
0.00455433
0.00115523
-9.92277e-05
0.00423871
0.00144384
0.00321194
0.00128574
-6.03579e-05
0.00499546
0.000814579
-0.000108739
0.00477705
0.0011985
-0.000134852
0.00446992
0.0014517
0.0033293
0.00124033
-0.000169273
0.00513819
0.000869369
-0.000172117
0.00496185
0.00122446
-0.000164606
0.00466236
0.00143555
0.00340254
0.00117092
-0.00025371
0.00524427
0.00091141
-0.000222561
0.00511349
0.00123066
-0.000187506
0.0048166
0.00139669
0.00343299
0.00108219
-0.000314018
0.00532704
0.00093754
-0.000260052
0.00523672
0.00121674
-0.000203349
0.00493444
0.00133787
0.00342422
0.000979816
-0.000354905
0.00539389
0.000946231
-0.000286589
0.00533495
0.00118422
-0.000212758
0.005018
0.00126287
0.003381
0.000869669
-0.00038177
0.00544836
0.000937655
-0.000304685
0.00541039
0.00113571
-0.000216757
0.00506943
0.00117585
0.00330854
0.000757116
-0.00039978
0.0054914
0.000913622
-0.000316877
0.00546428
0.00107458
-0.000216535
0.00509076
0.00108098
0.00321189
0.000646606
-0.000413234
0.00552252
0.000876745
-0.000325434
0.00549719
0.00100432
-0.0002133
0.00508382
0.000982044
0.0030957
0.000541506
-0.000425342
0.00554067
0.000829983
-0.000332178
0.00550933
0.000928226
-0.00020806
0.00505003
0.000882201
0.00296408
0.000443956
-0.000438383
0.00554467
0.000776258
-0.000338526
0.00550058
0.000849135
-0.000201618
0.00499027
0.000784025
0.00282069
0.000355095
-0.000453883
0.00553343
0.000718174
-0.000345517
0.0054706
0.000769364
-0.000194934
0.00490501
0.000689305
0.00266844
0.000275678
-0.000472781
0.00550602
0.000657909
-0.000353808
0.00541891
0.000690756
-0.000188898
0.00479478
0.000599098
0.00250898
0.000206218
-0.000495561
0.0054616
0.000597183
-0.000363806
0.00534479
0.000614638
-0.000184101
0.00466016
0.000514045
0.00234321
0.000146742
-0.000522352
0.00539928
0.000537193
-0.000375833
0.00524717
0.000541718
-0.000180865
0.00450171
0.000434744
0.00217146
9.67873e-05
-0.000553112
0.00531787
0.000478619
-0.000389962
0.00512499
0.000472431
-0.000179265
0.00431989
0.000361726
0.0019935
5.55269e-05
-0.000587488
0.00521603
0.000421997
-0.000406062
0.00497722
0.00040713
-0.000179273
0.00411505
0.000295276
0.0018086
2.19143e-05
-0.000624834
0.00509229
0.000367741
-0.000423843
0.00480294
0.00034606
-0.000180852
0.00388759
0.000235472
0.00161575
-4.82806e-06
-0.00066423
0.00494501
0.000316105
-0.000442744
0.00460138
0.000289392
-0.000183684
0.00363801
0.000182202
0.00141482
-2.5882e-05
-0.000704449
0.00477238
0.000267291
-0.000461942
0.00437203
0.000237343
-0.000187353
0.00336706
0.000135427
0.00120677
-4.24102e-05
-0.000743826
0.00457253
0.000221674
-0.000480428
0.00411466
0.000190299
-0.000191397
0.00307574
9.54893e-05
0.000992563
-5.45412e-05
-0.000780078
0.00434368
0.000179924
-0.00049678
0.00382919
0.000149069
-0.000195229
0.00276454
6.35111e-05
0.000771471
-5.89344e-05
-0.000810563
0.00408438
0.000142971
-0.00050956
0.00351589
0.000114848
-0.000198786
0.00243388
4.0535e-05
0.000541445
-5.48693e-05
-0.000831794
0.00379316
0.000111982
-0.000516825
0.00317443
8.84938e-05
-0.000201272
0.00208223
2.74894e-05
0.000292596
-3.65367e-05
-0.000840073
0.00346849
8.78096e-05
-0.000517236
0.00280524
7.05275e-05
-0.000205336
0.00171061
2.40685e-05
-2.48181e-06
-8.36281e-07
-0.000828019
0.003108
6.98372e-05
-0.000499461
0.00240834
5.8435e-05
-0.000185432
0.00132315
1.76479e-05
-0.000267903
-1.05434e-05
-0.000787959
0.00271104
5.51065e-05
-0.000455064
0.00198798
4.59245e-05
-0.000135337
0.000927839
4.52447e-06
-0.000435708
-5.46011e-05
-0.000713585
0.00228219
4.03685e-05
-0.000385888
0.00155814
2.69953e-05
-8.06629e-05
0.000543877
-1.50118e-05
-0.000524734
-7.92678e-05
-0.000590002
0.00182966
2.33436e-05
-0.000281215
0.00113928
8.03706e-07
-1.50712e-05
0.000199294
-4.29969e-05
-0.000534341
-9.451e-05
-0.000384746
0.00134959
8.95188e-06
-8.8671e-05
0.000728083
-2.79991e-05
7.27283e-05
-2.76225e-05
-7.24596e-05
-0.000456298
-9.35025e-05
-2.54169e-05
0.000770353
2.6637e-05
0.00020862
0.000349951
-3.60959e-05
0.000188221
-8.00712e-05
-7.39455e-05
-0.00028572
-7.06166e-05
0.000543132
0.000157288
0.00059506
7.04968e-05
0.000349333
6.99276e-06
-1.31916e-05
0.000664342
0.000921054
0.000492372
0.000204504
0.0007824
0.000410207
-0.000116229
0.000590536
0.000337009
-0.000170665
0.00029879
0.000243414
-6.5645e-06
0.000148318
0.0013884
0.00193485
0.000620022
0.000899408
0.00169022
0.000593466
0.000489921
0.00136917
0.000570721
0.000163777
0.000974722
0.000568774
0.000503998
0.000493673
0.00137458
0.00281262
0.000439326
0.000917266
0.00250858
0.000531598
0.000539186
0.00210361
0.000607443
0.000225074
0.0016478
0.000672927
0.00112608
0.00059782
0.000961875
0.00342285
0.000257288
0.000582137
0.00313637
0.000438602
0.000299575
0.00270591
0.00058833
9.07187e-05
0.00223147
0.000704642
0.00165511
0.000636163
0.000455478
0.00386606
0.000180464
0.000157085
0.00361125
0.000393764
-8.26171e-06
0.00318095
0.000579682
-7.34688e-05
0.0027096
0.000725857
0.00207241
0.000650046
-4.28849e-05
0.00423448
0.000165502
-0.000250586
0.00398291
0.000384433
-0.000295613
0.00356127
0.000582908
-0.000222566
0.00310442
0.00074343
0.00239473
0.000660823
-0.000501014
0.00454907
0.000181862
-0.000601351
0.00428027
0.000382631
-0.000538225
0.00387898
0.000591627
-0.000343124
0.00343426
0.000762326
0.00264167
0.000669953
-0.000891623
0.00481199
0.000191489
-0.000890256
0.00452673
0.000384877
-0.000729318
0.0041503
0.000604007
-0.00043248
0.00371363
0.000780727
0.00283065
0.000673196
-0.00122339
0.00502309
0.000190922
-0.00112394
0.00473121
0.000388051
-0.00087373
0.00438216
0.000617037
-0.000494748
0.00395104
0.000794982
0.00297281
0.000667094
-0.00150822
0.0051748
0.000187307
-0.00131023
0.00489298
0.000393181
-0.000978832
0.00457662
0.000629361
-0.000535698
0.00415011
0.000801629
0.00307293
0.000649928
-0.00174375
0.000189035
-0.00145097
0.00501235
0.00040243
-0.00105011
0.00473498
0.000639288
-0.000559125
0.00431221
0.000798613
0.00313285
0.000621282
-0.00154732
0.0050908
0.000416398
-0.0010916
0.00485863
0.000645098
-0.000567467
0.00443837
0.000785255
0.00315412
0.000582179
-0.0015946
0.00514401
0.000428947
-0.0011037
0.0049546
0.000643778
-0.000561656
0.00453194
0.000761077
0.00314027
0.000534386
-0.00159903
0.00518299
0.000437707
-0.00109059
0.00502883
0.000634087
-0.000543789
0.00459634
0.000726669
0.00309588
0.000480413
-0.00157055
0.00521382
0.000440653
-0.00105823
0.00508493
0.000615791
-0.000516746
0.0046343
0.000683424
0.00302576
0.000423048
-0.00151895
0.00523911
0.000436804
-0.00101248
0.00512469
0.000589499
-0.00048346
0.00464787
0.000633256
0.00293448
0.000364929
-0.00145323
0.00525856
0.000426074
-0.000958726
0.00514832
0.000556441
-0.000446667
0.00463846
0.00057833
0.00282615
0.000308278
-0.00138072
0.00527028
0.000409033
-0.00090142
0.00515516
0.000518176
-0.000408699
0.004607
0.000520784
0.00270418
0.000254772
-0.00130691
0.00527172
0.00038673
-0.000843998
0.00514411
0.00047637
-0.00037136
0.00455402
0.000462547
0.00257129
0.000205491
-0.00123569
0.0052602
0.000360476
-0.000788959
0.00511388
0.000432635
-0.000335935
0.00447973
0.000405287
0.00242941
0.000161039
-0.00116967
0.00523326
0.000331629
-0.000738033
0.00506319
0.00038841
-0.000303398
0.0043841
0.000350304
0.0022799
0.00012179
-0.0011105
0.0051888
0.000301441
-0.000692319
0.00499085
0.00034492
-0.000274506
0.00426686
0.00029852
0.00212369
8.79229e-05
-0.00105905
0.00512501
0.000270982
-0.000652429
0.00489574
0.000303131
-0.000249734
0.00412764
0.000250577
0.00196133
5.93626e-05
-0.00101566
0.00504037
0.000241075
-0.000618663
0.00477676
0.000263697
-0.000229268
0.00396601
0.000206978
0.00179301
3.58436e-05
-0.000980314
0.00493342
0.000212297
-0.000591056
0.00463286
0.000227077
-0.000213052
0.00378163
0.000168097
0.00161851
1.69723e-05
-0.000952679
0.00480283
0.000185113
-0.000569408
0.00446309
0.000193632
-0.000200973
0.0035743
0.000134168
0.00143687
2.59039e-06
-0.000932097
0.00464739
0.000159891
-0.000553207
0.00426668
0.000163577
-0.000192513
0.00334399
0.000105096
0.00124788
-8.35686e-06
-0.000917646
0.00446596
0.000136934
-0.000541754
0.00404311
0.000137067
-0.000187192
0.00309092
8.07095e-05
0.00105196
-1.71507e-05
-0.000908138
0.0042575
0.000116578
-0.000534259
0.00379221
0.00011437
-0.0001847
0.00281569
6.10978e-05
0.00084877
-2.39204e-05
-0.000902038
0.00402119
9.93071e-05
-0.000529747
0.00351426
9.59583e-05
-0.000184628
0.00251936
4.67001e-05
0.000637616
-2.80145e-05
-0.000897206
0.00375647
8.58553e-05
-0.000526629
0.00320994
8.28154e-05
-0.00018588
0.00220267
3.94531e-05
0.00041392
-2.11181e-05
-0.000891177
0.0034637
7.69558e-05
-0.000523781
0.00288153
7.58558e-05
-0.000190104
0.00186849
4.10359e-05
0.000167167
1.77974e-06
-0.000879823
0.0031445
7.27265e-05
-0.000517274
0.00253356
7.39202e-05
-0.000192346
0.00152495
4.61006e-05
-8.56994e-05
2.3985e-05
-0.000856372
0.00280132
7.26436e-05
-0.000498011
0.00217088
7.48417e-05
-0.000174153
0.00118046
4.47066e-05
-0.000285256
2.45681e-05
-0.000813035
0.00243608
7.66474e-05
-0.000458621
0.00179507
7.9838e-05
-0.000135288
0.000834405
4.03685e-05
-0.00042595
-5.1356e-06
-0.000743705
0.00205284
8.16991e-05
-0.000395903
0.00141178
8.14102e-05
-8.52236e-05
0.000489932
3.83195e-05
-0.000527634
-3.81397e-05
-0.000641357
0.001658
8.55872e-05
-0.000307733
0.00103603
6.91177e-05
-2.5898e-05
0.000162973
3.01132e-05
-0.000573801
-5.8998e-05
-0.000484845
0.00125533
8.659e-05
-0.00017336
0.000682102
4.32524e-05
4.35253e-05
-9.84074e-05
1.49953e-06
-0.000558197
-6.65875e-05
-0.000242898
0.000832477
0.000100219
3.76706e-05
0.000344921
2.86131e-05
0.000123641
-0.00022236
-3.44755e-05
-0.000469557
-5.85003e-05
0.000131022
0.00037105
0.000154595
0.0003072
7.77636e-05
5.48846e-05
0.000221936
-0.000195924
-1.51164e-05
-0.000291713
-2.65242e-05
0.000607866
0.000269847
0.000601013
0.000155115
0.00033545
7.66333e-05
3.0546e-05
5.76374e-05
0.000763644
-0.000133257
0.000601102
-0.000204333
0.000408084
-0.000138022
0.000177103
1.02972e-05
0.000279528
0.00174997
2.22059e-05
0.00145189
-0.000113842
0.00111485
-0.000118977
0.000751012
0.000384993
4.71077e-05
0.00254882
-0.00015338
0.00218398
-0.000212521
0.00178144
-0.000149613
0.00136103
0.000833201
-0.000445238
0.00302023
-0.000519198
0.00269654
-0.000455186
0.00230576
-0.000263386
0.00187387
0.00120598
-0.000949735
0.00329189
-0.00090354
0.00304411
-0.000714853
0.00269675
-0.000383859
0.00226874
0.00147217
-0.00137291
0.00346765
-0.00123205
0.00328768
-0.000938072
0.00298568
-0.0004862
0.00256029
0.00164679
-0.00170264
0.0035977
-0.00149374
0.00346141
-0.00111467
0.00319824
-0.000563465
0.00277142
0.00175328
-0.0019535
0.00369743
-0.00169361
0.0035864
-0.00124505
0.00335369
-0.000615485
0.00292258
0.00181099
-0.00214622
0.00376616
-0.00184238
0.00367061
-0.00133496
0.00346331
-0.000645286
0.00302788
0.0018328
-0.0023003
0.00379233
-0.00195041
0.0037139
-0.00139067
0.00353294
-0.000656589
0.00309542
0.00182613
-0.00241998
0.00376614
-0.00202078
0.00371713
-0.00141548
0.00356693
-0.000651826
0.00313038
0.00179559
-0.00250818
-0.00205489
0.00368023
-0.00141175
0.00356889
-0.000632928
0.00313681
0.00174484
-0.0020392
0.00362576