/*--------------------------------*- C++ -*----------------------------------*\
| =========                 |                                                 |
| \\      /  F ield         | OpenFOAM: The Open Source CFD Toolbox           |
|  \\    /   O peration     | Version:  2.3.1                                 |
|   \\  /    A nd           | Web:      www.OpenFOAM.org                      |
|    \\/     M anipulation  |                                                 |
\*---------------------------------------------------------------------------*/
FoamFile
{
    version     2.0;
    format      ascii;
    class       volVectorField;
    location    "600";
    object      U;
}
// * * * * * * * * * * * * * * * * * * * * * * * * * * * * * * * * * * * * * //

dimensions      [0 1 -1 0 0 0 0];

internalField   nonuniform List<vector> 
6852
(
(0.0789769 -0.00426783 0.0170603)
(0.0415249 -0.00372145 0.0100798)
(0.01273 -0.00616866 0.00597909)
(-0.00508923 -0.0113326 0.00533822)
(-0.00484864 -0.0103992 0.001647)
(0.235699 -0.015733 0.0375346)
(0.174842 0.000402236 0.0298507)
(0.113683 0.00495879 0.0224411)
(0.0512387 -0.00384656 0.0146448)
(0.00489998 -0.0150226 0.00131291)
(0.294303 -0.0363335 0.0376346)
(0.229245 -0.00599403 0.0347282)
(0.159845 0.0127665 0.028501)
(0.0856826 0.0180052 0.0201028)
(0.0171685 0.00832968 0.00602468)
(0.341266 -0.0239784 0.0275334)
(0.268291 0.00876997 0.0315763)
(0.18764 0.0335112 0.0299183)
(0.101145 0.0473721 0.0239912)
(0.0210123 0.0362054 0.010227)
(0.371367 0.0312261 0.0111863)
(0.294667 0.0532802 0.0232673)
(0.207713 0.0723985 0.027646)
(0.112717 0.0853964 0.0260796)
(0.0237952 0.0651068 0.0145971)
(0.389716 0.0977642 0.00850323)
(0.312016 0.108302 0.0220702)
(0.221769 0.119204 0.0279492)
(0.121377 0.127125 0.0281201)
(0.026005 0.0928383 0.0178426)
(0.394026 0.162795 0.0132233)
(0.316585 0.164112 0.0249616)
(0.225794 0.167372 0.0299347)
(0.123751 0.169191 0.0298674)
(0.0262307 0.118457 0.019501)
(0.311365 0.21492 0.0281568)
(0.221613 0.211916 0.0318394)
(0.120545 0.208065 0.030754)
(0.0246654 0.140198 0.0196176)
(0.298451 0.259485 0.0311341)
(0.210872 0.251193 0.0332642)
(0.11283 0.242122 0.0306843)
(0.0217731 0.157151 0.0185026)
(0.278718 0.296441 0.0335732)
(0.194691 0.283853 0.0339812)
(0.101615 0.270122 0.0296529)
(0.0180696 0.168755 0.0164679)
(0.253469 0.325144 0.0352049)
(0.174399 0.309182 0.0338197)
(0.0880063 0.291334 0.0276906)
(0.0140564 0.174901 0.0137851)
(0.223487 0.344588 0.0358088)
(0.151047 0.326638 0.0326651)
(0.0729379 0.305378 0.024868)
(0.0100988 0.175859 0.0106853)
(0.19113 0.354413 0.0351407)
(0.126344 0.336206 0.0304937)
(0.0575256 0.31234 0.0213335)
(0.00650891 0.172276 0.00739651)
(0.158449 0.355773 0.0331682)
(0.101767 0.338729 0.0274319)
(0.0426792 0.312879 0.0173199)
(0.00345067 0.165123 0.00414183)
(0.127081 0.350326 0.0301081)
(0.0784637 0.335416 0.0237311)
(0.0290568 0.307967 0.013107)
(0.000977196 0.155466 0.00111258)
(0.0980828 0.339898 0.0263234)
(0.0571579 0.327593 0.0196982)
(0.0170451 0.298663 0.00897418)
(-0.000924971 0.144333 -0.00155738)
(0.0719865 0.326161 0.0222083)
(0.0381552 0.31649 0.0156323)
(0.00684454 0.286017 0.00518706)
(-0.00223844 0.132549 -0.00380989)
(0.0489165 0.31047 0.018103)
(0.0215194 0.303089 0.011773)
(-0.00158661 0.270435 0.00187461)
(-0.00309998 0.121182 -0.00558042)
(0.0287182 0.293801 0.0142484)
(0.0072651 0.288121 0.00826868)
(-0.00835822 0.252678 -0.000959624)
(-0.0039092 0.110458 -0.00685886)
(0.0111326 0.276775 0.010772)
(-0.00484107 0.271609 0.00506786)
(-0.0135107 0.23414 -0.00323299)
(-0.00471701 0.100131 -0.0077552)
(-0.00432309 0.259617 0.00761617)
(-0.0147646 0.254036 0.00234695)
(-0.0175768 0.21515 -0.00503756)
(-0.00529933 0.0906467 -0.00808318)
(-0.0175905 0.242326 0.00489463)
(-0.0230386 0.235597 0.00014598)
(-0.0208839 0.196035 -0.00636832)
(-0.00563332 0.0813469 -0.0079337)
(-0.0291066 0.224707 0.00264886)
(-0.0300491 0.216517 -0.00159256)
(-0.0236415 0.176924 -0.00718717)
(-0.0058405 0.0719989 -0.00766412)
(-0.0392604 0.206668 0.000845088)
(-0.0361103 0.196927 -0.00293024)
(-0.0259831 0.157769 -0.00758188)
(-0.00602563 0.0624933 -0.00740687)
(-0.0483919 0.188105 -0.000534162)
(-0.0414702 0.176852 -0.00392616)
(-0.0280522 0.138463 -0.00784545)
(-0.00627783 0.0527123 -0.00722654)
(-0.0567749 0.168862 -0.00156422)
(-0.0463117 0.156229 -0.00476605)
(-0.0299921 0.119198 -0.0083137)
(-0.00671533 0.0425148 -0.00720699)
(-0.0646871 0.148849 -0.00241196)
(-0.0509659 0.135188 -0.00559804)
(-0.0319525 0.100841 -0.00890583)
(-0.00725431 0.0318017 -0.00730738)
(-0.0722993 0.128107 -0.00329914)
(-0.0557971 0.113777 -0.00666399)
(-0.0342077 0.0824822 -0.00950408)
(-0.00781029 0.0203923 -0.00746294)
(-0.0796843 0.107093 -0.00452994)
(-0.0608641 0.0930436 -0.00819556)
(-0.0369124 0.0638498 -0.0102155)
(-0.00851225 0.00829319 -0.0077199)
(-0.0869827 0.0862535 -0.00655225)
(-0.0659655 0.0738501 -0.010014)
(-0.0393398 0.0446707 -0.011159)
(-0.00914885 -0.00524397 -0.0084405)
(-0.0938226 0.067722 -0.0091891)
(-0.070272 0.0551623 -0.0118498)
(-0.0405322 0.0252214 -0.0124002)
(-0.00919227 -0.0178276 -0.00949842)
(-0.0988565 0.0510034 -0.0115284)
(-0.0724436 0.0368756 -0.013266)
(-0.0401076 0.00616634 -0.0135027)
(-0.00846794 -0.0284611 -0.0101205)
(-0.0996671 0.0347811 -0.0127621)
(-0.0706876 0.0188037 -0.0137732)
(-0.0362593 -0.0132062 -0.0131205)
(-0.00659835 -0.0366683 -0.00897063)
(-0.0952285 0.0187821 -0.0129148)
(-0.0644113 0.00112519 -0.0134381)
(-0.029408 -0.0294886 -0.011458)
(-0.00376535 -0.0415231 -0.00644222)
(-0.0855538 0.00288266 -0.0125046)
(-0.0543675 -0.0159922 -0.012405)
(-0.0209832 -0.0447665 -0.00914024)
(-0.00107269 -0.0449071 -0.00345225)
(-0.0708419 -0.0119754 -0.0117803)
(-0.0417539 -0.0305554 -0.0106724)
(-0.0121022 -0.0575158 -0.00665406)
(0.000381468 -0.0472481 -0.000748615)
(-0.0525177 -0.024074 -0.0112756)
(-0.0261867 -0.0423795 -0.00857448)
(-0.00340032 -0.0656703 -0.00422131)
(0.000800624 -0.0484219 0.00112473)
(-0.0298996 -0.0336809 -0.0117396)
(-0.00750069 -0.0498946 -0.00709605)
(0.00532626 -0.0666157 -0.00248411)
(0.00128791 -0.0475044 0.00212652)
(-0.00369198 -0.0388923 -0.0143393)
(0.0130418 -0.0506702 -0.00757176)
(0.0141468 -0.0592224 -0.00226472)
(0.00263242 -0.0422835 0.00189837)
(0.0218931 -0.0368937 -0.0189272)
(0.0305438 -0.0414028 -0.0105411)
(0.0226984 -0.042926 -0.00449498)
(0.00499296 -0.0305432 0.000235547)
(0.0335052 -0.0158836 -0.0213311)
(0.0351768 -0.0155393 -0.0131704)
(0.0236279 -0.0146203 -0.00783592)
(0.00626725 -0.009957 -0.00277945)
(0.139209 0.00631403 0.0802684)
(0.0838029 0.00535472 0.0599899)
(0.0341237 0.000136878 0.0429278)
(-0.00568074 -0.0151458 0.0326146)
(-0.00438274 -0.0214321 0.0183153)
(0.307276 0.00910088 0.107698)
(0.246981 0.0220352 0.0949344)
(0.181126 0.0240882 0.0808202)
(0.111017 0.0106953 0.0668913)
(0.0376184 -0.0223974 0.0382676)
(0.347997 0.00480091 0.088162)
(0.289389 0.0310475 0.0908437)
(0.221371 0.044508 0.0857222)
(0.142791 0.0438876 0.0751672)
(0.0588839 0.0271688 0.0498017)
(0.36837 0.0413893 0.034021)
(0.307717 0.0654964 0.0627531)
(0.234349 0.0809678 0.0769843)
(0.147929 0.0861791 0.078624)
(0.0563406 0.0723052 0.0592217)
(0.380668 0.0937682 -0.00360872)
(0.32077 0.111892 0.0394465)
(0.243937 0.125219 0.0681951)
(0.151563 0.131724 0.0818426)
(0.0541061 0.115366 0.0702906)
(0.396497 0.152776 -0.0125768)
(0.336886 0.164953 0.0327747)
(0.256553 0.174384 0.0667356)
(0.15815 0.178945 0.0868504)
(0.0540244 0.155003 0.0804189)
(0.406344 0.217538 -0.00762104)
(0.347255 0.223097 0.0359104)
(0.265384 0.226984 0.0700949)
(0.163214 0.22741 0.0922249)
(0.0540011 0.192908 0.0877055)
(0.409585 0.279739 0.00124137)
(0.350645 0.280065 0.0427183)
(0.268523 0.278788 0.0752867)
(0.164847 0.274725 0.0967753)
(0.0529504 0.228291 0.0916563)
(0.346091 0.33393 0.0507947)
(0.264997 0.327717 0.0807406)
(0.162093 0.319234 0.0998912)
(0.0502867 0.260061 0.0924133)
(0.333725 0.38224 0.0590266)
(0.25498 0.371672 0.0855871)
(0.154976 0.359284 0.101269)
(0.0459698 0.286955 0.0903431)
(0.314895 0.423583 0.0667858)
(0.239606 0.409326 0.0892511)
(0.144241 0.393691 0.100765)
(0.0403485 0.308008 0.0858799)
(0.290818 0.456557 0.0735241)
(0.220116 0.439738 0.0912841)
(0.130804 0.421694 0.0983363)
(0.0338866 0.322682 0.0794465)
(0.263735 0.480611 0.0782898)
(0.19823 0.46262 0.0913206)
(0.115805 0.443046 0.094063)
(0.0271161 0.330946 0.071495)
(0.235444 0.496512 0.0806967)
(0.175376 0.478489 0.0893289)
(0.1002 0.458056 0.0882059)
(0.0204686 0.333256 0.0625248)
(0.207244 0.505401 0.0807193)
(0.152621 0.488202 0.0855222)
(0.0847149 0.467336 0.0811522)
(0.0142524 0.330347 0.0530411)
(0.179959 0.508532 0.0786424)
(0.130659 0.492748 0.0802753)
(0.0698306 0.47163 0.0733414)
(0.00866223 0.323061 0.0435013)
(0.154049 0.507097 0.0748976)
(0.109878 0.493096 0.0740271)
(0.0558308 0.471693 0.0652289)
(0.00381644 0.312209 0.0342497)
(0.129716 0.502141 0.069965)
(0.0904549 0.490114 0.0672055)
(0.0428346 0.468195 0.057174)
(-0.000275649 0.298504 0.0255954)
(0.106998 0.494525 0.0642902)
(0.0724423 0.484525 0.0601917)
(0.0308813 0.461698 0.0493309)
(-0.00366961 0.282456 0.017863)
(0.0858377 0.48492 0.0582491)
(0.0557695 0.476861 0.0532424)
(0.0199429 0.452587 0.0417785)
(-0.00633852 0.264616 0.0112059)
(0.0660847 0.473817 0.0521091)
(0.0402497 0.467492 0.0465203)
(0.0101171 0.441137 0.0347013)
(-0.00792851 0.244791 0.00555977)
(0.0475554 0.461528 0.0460736)
(0.0257517 0.456615 0.0401751)
(0.00137052 0.426471 0.0280922)
(-0.00836752 0.225182 0.00113304)
(0.0300462 0.448247 0.040328)
(0.0122491 0.444352 0.0342723)
(-0.0063313 0.408808 0.0220378)
(-0.00834968 0.20578 -0.00228337)
(0.0133752 0.434115 0.0349779)
(-0.000441969 0.430338 0.0287237)
(-0.0128549 0.388705 0.0166588)
(-0.00830581 0.186513 -0.0049472)
(-0.002706 0.419133 0.0299974)
(-0.0122108 0.4143 0.0235782)
(-0.0184158 0.366443 0.0118674)
(-0.00831451 0.167379 -0.00702871)
(-0.0181085 0.40322 0.0254179)
(-0.0231193 0.396075 0.0188366)
(-0.0232763 0.341976 0.00746865)
(-0.0083396 0.148249 -0.00866358)
(-0.0328689 0.386058 0.0211908)
(-0.033284 0.375448 0.0144156)
(-0.027634 0.314799 0.00341222)
(-0.0084188 0.128739 -0.00993929)
(-0.0470007 0.367376 0.017188)
(-0.0427335 0.352278 0.0101687)
(-0.0315632 0.285181 -0.000234406)
(-0.00864182 0.108522 -0.0109269)
(-0.0605095 0.346801 0.0132034)
(-0.0514955 0.325953 0.00587434)
(-0.0350669 0.253246 -0.00355242)
(-0.00906659 0.0872758 -0.0117229)
(-0.0732144 0.323936 0.00891737)
(-0.0593737 0.295788 0.00144722)
(-0.0381468 0.21896 -0.00680476)
(-0.00980912 0.0644567 -0.0127587)
(-0.0846858 0.297271 0.0041108)
(-0.0660587 0.262117 -0.00308095)
(-0.0408004 0.182977 -0.0101093)
(-0.0109993 0.0394045 -0.0143064)
(-0.0941434 0.266507 -0.00105759)
(-0.0712874 0.225398 -0.00776762)
(-0.0430449 0.145665 -0.0134247)
(-0.012576 0.0118007 -0.0162545)
(-0.100678 0.232418 -0.00647591)
(-0.0742132 0.187593 -0.0124908)
(-0.0436191 0.107779 -0.0167946)
(-0.0119359 -0.0199473 -0.0182571)
(-0.103666 0.197014 -0.0117393)
(-0.0742038 0.149659 -0.0166755)
(-0.0415415 0.0715733 -0.0191253)
(-0.0085578 -0.0410731 -0.0167403)
(-0.102523 0.161403 -0.0162357)
(-0.0708703 0.11246 -0.0193886)
(-0.0366604 0.0370013 -0.0186616)
(-0.00414669 -0.0578625 -0.0112578)
(-0.0964039 0.126538 -0.0196784)
(-0.0636904 0.076965 -0.0205923)
(-0.0284991 0.00382513 -0.0168702)
(-0.000756972 -0.0685174 -0.00597741)
(-0.0846531 0.0936815 -0.0222613)
(-0.0522854 0.0448585 -0.0208604)
(-0.0177107 -0.0239873 -0.0157231)
(0.00112048 -0.07372 -0.00304811)
(-0.0665942 0.0637668 -0.0242485)
(-0.0362736 0.0178312 -0.0200153)
(-0.00515323 -0.0405568 -0.0144685)
(0.00312204 -0.0723292 -0.00181432)
(-0.0402728 0.038497 -0.0278281)
(-0.0106722 -0.00181513 -0.0203437)
(0.0111278 -0.0485838 -0.0123838)
(0.00603775 -0.0631213 -0.00298286)
(-0.00255508 0.0132294 -0.037211)
(0.0248132 -0.0178197 -0.0252479)
(0.027253 -0.0405741 -0.0146383)
(0.0109682 -0.0453879 -0.00581404)
(0.0463422 0.00208611 -0.0542644)
(0.0570571 -0.00799663 -0.0366545)
(0.0435564 -0.0169333 -0.0219234)
(0.0147256 -0.0165959 -0.009197)
(0.142148 0.0219567 0.112931)
(0.0862657 0.0181913 0.0880141)
(0.03527 0.0104617 0.0677377)
(-0.0100908 -0.0106744 0.053703)
(-0.00537042 -0.0201606 0.0359964)
(0.284273 0.062918 0.143312)
(0.227647 0.06473 0.12697)
(0.167409 0.0568601 0.110646)
(0.105257 0.03492 0.0990482)
(0.0376461 -0.00796686 0.0781101)
(0.302283 0.101539 0.108069)
(0.251567 0.109698 0.115633)
(0.194049 0.104277 0.114371)
(0.127557 0.0863239 0.109573)
(0.053864 0.0558439 0.0943516)
(0.280657 0.149878 0.0424619)
(0.234175 0.159191 0.0834543)
(0.180814 0.155062 0.105448)
(0.11656 0.140016 0.115036)
(0.0450241 0.109933 0.106703)
(0.269316 0.185189 -0.000909863)
(0.220301 0.199606 0.0591035)
(0.166913 0.199674 0.0991966)
(0.104377 0.188329 0.122171)
(0.0362448 0.156409 0.12042)
(0.271483 0.226205 -0.0185607)
(0.217378 0.241462 0.0487171)
(0.161184 0.242966 0.0994397)
(0.0977067 0.233094 0.131579)
(0.0303791 0.195214 0.133993)
(0.273568 0.274404 -0.0188308)
(0.218252 0.286792 0.0491409)
(0.159907 0.286755 0.104236)
(0.0947761 0.276215 0.1412)
(0.0266121 0.229777 0.144999)
(0.272682 0.323504 -0.0114356)
(0.218461 0.332551 0.0557176)
(0.159338 0.329981 0.11133)
(0.0930673 0.317765 0.149515)
(0.0237959 0.261204 0.152194)
(0.265472 0.372095 -0.000595632)
(0.214415 0.376937 0.0651563)
(0.156394 0.371459 0.11888)
(0.09041 0.357172 0.155613)
(0.0209537 0.289411 0.155075)
(0.204693 0.417469 0.0758666)
(0.149661 0.409474 0.125793)
(0.0856879 0.393338 0.159076)
(0.0176 0.31359 0.153661)
(0.189964 0.452231 0.086798)
(0.139292 0.442649 0.131318)
(0.0788557 0.425265 0.159688)
(0.0137371 0.332858 0.148387)
(0.171833 0.479857 0.0969501)
(0.126402 0.470167 0.134801)
(0.0704616 0.452264 0.157397)
(0.00960138 0.346598 0.139853)
(0.153179 0.500698 0.104726)
(0.112588 0.492075 0.135662)
(0.0613317 0.474115 0.152346)
(0.00554725 0.354667 0.128778)
(0.135122 0.516101 0.109361)
(0.0987545 0.509002 0.133776)
(0.0520669 0.491022 0.144909)
(0.00184663 0.357372 0.115952)
(0.118202 0.527125 0.110818)
(0.0854374 0.521613 0.129405)
(0.0430661 0.503354 0.135625)
(-0.0013293 0.355269 0.102165)
(0.102467 0.534623 0.109426)
(0.0728625 0.530532 0.123024)
(0.0345483 0.511539 0.125086)
(-0.00389992 0.349023 0.0881219)
(0.0878267 0.539214 0.105726)
(0.0610807 0.536292 0.115189)
(0.0266132 0.515999 0.113863)
(-0.00584371 0.339317 0.0743971)
(0.0741051 0.541356 0.100325)
(0.0500423 0.539334 0.106444)
(0.0192822 0.517109 0.102434)
(-0.00718177 0.326799 0.0614413)
(0.0611174 0.541379 0.0937897)
(0.0396496 0.540009 0.0972548)
(0.0125568 0.515161 0.0911443)
(-0.00791691 0.312081 0.0495675)
(0.0486963 0.539532 0.0865984)
(0.0297682 0.53858 0.0879758)
(0.00642724 0.510198 0.0802186)
(-0.00798432 0.295938 0.0390177)
(0.0366952 0.536009 0.0791194)
(0.0202885 0.535208 0.078876)
(0.000834981 0.501947 0.0698143)
(-0.00747702 0.279321 0.0297794)
(0.0249698 0.530945 0.0716374)
(0.0111635 0.529975 0.0701401)
(-0.00428913 0.490611 0.0600637)
(-0.00677185 0.262254 0.0216611)
(0.0133866 0.524446 0.0643507)
(0.00230912 0.522741 0.0618404)
(-0.00890889 0.476445 0.0509894)
(-0.00615698 0.244855 0.014703)
(0.0018458 0.516588 0.0573665)
(-0.00629867 0.513258 0.0539855)
(-0.0130742 0.45974 0.0426062)
(-0.00573476 0.227153 0.00883518)
(-0.0097008 0.507331 0.0506862)
(-0.0146077 0.501427 0.046604)
(-0.0169126 0.440609 0.0349307)
(-0.00550064 0.208977 0.00389434)
(-0.0212135 0.496544 0.0443251)
(-0.0226431 0.48711 0.0396973)
(-0.0204783 0.419176 0.028007)
(-0.00543283 0.190166 -0.000203306)
(-0.0326302 0.484055 0.0382974)
(-0.0303825 0.470195 0.0332643)
(-0.0238037 0.395493 0.0218291)
(-0.00550167 0.170728 -0.00347559)
(-0.0438565 0.46967 0.0325846)
(-0.0377927 0.450584 0.0273099)
(-0.0269104 0.36961 0.0163427)
(-0.00568115 0.150612 -0.00598044)
(-0.0547694 0.453147 0.027154)
(-0.044828 0.428163 0.0218581)
(-0.0298073 0.341552 0.0115168)
(-0.00595677 0.129765 -0.00776906)
(-0.0652051 0.434202 0.0220312)
(-0.0514242 0.402814 0.0168709)
(-0.0324733 0.311397 0.00726472)
(-0.00625851 0.108095 -0.00895342)
(-0.074933 0.412464 0.0172538)
(-0.0574507 0.374358 0.0122665)
(-0.0348901 0.278606 0.00346122)
(-0.00658465 0.085307 -0.00952103)
(-0.0836682 0.387558 0.0127382)
(-0.0626574 0.342776 0.00788984)
(-0.0369079 0.243237 1.85474e-05)
(-0.0071109 0.0609549 -0.00971342)
(-0.0909254 0.359178 0.00821939)
(-0.0666459 0.307307 0.00335693)
(-0.0383605 0.205412 -0.00366726)
(-0.00805814 0.0345649 -0.0113284)
(-0.0959327 0.326447 0.00341801)
(-0.0687495 0.268348 -0.00137315)
(-0.0387658 0.165383 -0.00772775)
(-0.00879746 0.00228441 -0.0151199)
(-0.097712 0.289505 -0.00158264)
(-0.0680152 0.226603 -0.00581043)
(-0.0365918 0.124238 -0.0103506)
(-0.00534505 -0.0291234 -0.0137932)
(-0.0955301 0.249061 -0.00671049)
(-0.06402 0.183167 -0.00978961)
(-0.0313337 0.0836623 -0.0117195)
(-0.00055147 -0.0467699 -0.0105672)
(-0.088503 0.20639 -0.0119765)
(-0.0565026 0.139569 -0.0136854)
(-0.0238372 0.044613 -0.013842)
(0.00251186 -0.0581936 -0.0089664)
(-0.0750825 0.163017 -0.0172728)
(-0.0443753 0.098154 -0.017069)
(-0.0129876 0.0112189 -0.0163859)
(0.00481049 -0.0620344 -0.0080237)
(-0.0527168 0.12088 -0.0230431)
(-0.0235159 0.0628221 -0.0199955)
(0.00670289 -0.0156599 -0.0166576)
(0.00684432 -0.0567398 -0.00790374)
(-0.0171856 0.0770049 -0.0319943)
(0.0134566 0.0258886 -0.0243592)
(0.0264731 -0.0220996 -0.0172827)
(0.0115259 -0.0428643 -0.00886242)
(0.0417051 0.0341165 -0.0469491)
(0.0615689 0.0116768 -0.034739)
(0.0509025 -0.00716542 -0.0227405)
(0.0174518 -0.0155865 -0.0100577)
(0.125487 0.0351452 0.108345)
(0.0720858 0.0288714 0.0866052)
(0.0242193 0.0192245 0.070432)
(-0.0164882 -0.0040572 0.0571456)
(-0.00741423 -0.0153958 0.0373508)
(0.232095 0.112664 0.131985)
(0.17827 0.102752 0.119262)
(0.124941 0.0851138 0.108051)
(0.0736285 0.0557427 0.102911)
(0.0243547 0.00835605 0.0917252)
(0.237611 0.191013 0.0960632)
(0.189147 0.177577 0.105612)
(0.14025 0.15325 0.110199)
(0.0887421 0.11958 0.114101)
(0.0348927 0.0765938 0.108592)
(0.201977 0.253055 0.0460687)
(0.158272 0.241687 0.0796712)
(0.116428 0.215653 0.102629)
(0.0718264 0.180992 0.119016)
(0.0248967 0.134641 0.118727)
(0.167811 0.293707 0.0158927)
(0.123955 0.290247 0.0636075)
(0.0865299 0.266448 0.0994602)
(0.0501813 0.232951 0.126025)
(0.0134835 0.182509 0.128654)
(0.141291 0.329029 0.00236449)
(0.0950273 0.332037 0.0587074)
(0.0605227 0.309783 0.10265)
(0.0315761 0.277075 0.135925)
(0.00416576 0.219628 0.13876)
(0.116584 0.365245 0.000571872)
(0.070792 0.370635 0.0618026)
(0.0399746 0.348346 0.109934)
(0.0175698 0.315968 0.146692)
(-0.00263399 0.249565 0.147357)
(0.0904673 0.402447 0.00568456)
(0.0502688 0.406656 0.0691509)
(0.0240877 0.383338 0.11888)
(0.00755335 0.35118 0.156564)
(-0.0073008 0.274581 0.153161)
(0.0626063 0.439336 0.0142297)
(0.0319666 0.439622 0.0781988)
(0.0113005 0.415127 0.127742)
(8.31376e-05 0.382848 0.164246)
(-0.0105521 0.296226 0.155452)
(0.0329631 0.473051 0.025335)
(0.0148621 0.468233 0.0878232)
(0.000329852 0.443273 0.135634)
(-0.00594756 0.411317 0.168878)
(-0.0131535 0.314192 0.153982)
(-0.000838663 0.491085 0.0975657)
(-0.00929984 0.467514 0.141589)
(-0.0111587 0.436368 0.170147)
(-0.0152768 0.328123 0.148948)
(-0.0146578 0.507916 0.105562)
(-0.0175585 0.487874 0.144944)
(-0.0157193 0.457592 0.168262)
(-0.016891 0.337676 0.140843)
(-0.0255049 0.519951 0.111252)
(-0.0239689 0.504577 0.145632)
(-0.0194792 0.474898 0.163532)
(-0.0179086 0.342802 0.130324)
(-0.0332138 0.529096 0.114465)
(-0.0286196 0.518206 0.143754)
(-0.0224081 0.488447 0.156395)
(-0.0183094 0.34378 0.118135)
(-0.0383704 0.536428 0.115284)
(-0.0318668 0.5292 0.13961)
(-0.0245781 0.498459 0.147381)
(-0.0181395 0.341053 0.105012)
(-0.0416967 0.542428 0.113894)
(-0.0340836 0.537832 0.133593)
(-0.0261104 0.505152 0.137033)
(-0.0174834 0.335138 0.0916126)
(-0.0438905 0.547288 0.110622)
(-0.0356216 0.544268 0.126153)
(-0.0271482 0.508738 0.125867)
(-0.0164435 0.326559 0.0784675)
(-0.0455133 0.551008 0.105856)
(-0.036783 0.548594 0.117728)
(-0.0278339 0.509413 0.114326)
(-0.0151271 0.315807 0.0659714)
(-0.0469738 0.553495 0.0999902)
(-0.0378054 0.550842 0.108714)
(-0.0282863 0.507345 0.102772)
(-0.0136267 0.303319 0.054358)
(-0.0485542 0.554628 0.0933887)
(-0.0388701 0.551016 0.0994344)
(-0.0286022 0.502656 0.0914945)
(-0.0120142 0.28948 0.0437279)
(-0.0504396 0.554291 0.0863576)
(-0.0401007 0.54909 0.0901437)
(-0.0288702 0.495393 0.080672)
(-0.0103884 0.274647 0.0341735)
(-0.0527476 0.552382 0.0791427)
(-0.0415689 0.545024 0.0810412)
(-0.0291538 0.485605 0.0703777)
(-0.00886586 0.259032 0.0258131)
(-0.0555406 0.548812 0.0719326)
(-0.0433159 0.538758 0.0722702)
(-0.0294896 0.473349 0.0606537)
(-0.00753618 0.242757 0.0186632)
(-0.0588362 0.543502 0.0648499)
(-0.0453614 0.530198 0.0638854)
(-0.0299112 0.458686 0.0515644)
(-0.00644138 0.225883 0.0126662)
(-0.0626302 0.53635 0.0579508)
(-0.0476998 0.519238 0.05591)
(-0.0304402 0.441664 0.043174)
(-0.00558286 0.20841 0.00772048)
(-0.0668856 0.527225 0.0512824)
(-0.0503015 0.505768 0.0483701)
(-0.0310837 0.422325 0.0354969)
(-0.00494702 0.190293 0.00366112)
(-0.0715277 0.515987 0.0448773)
(-0.0531133 0.489689 0.0412745)
(-0.031843 0.400703 0.0285184)
(-0.00452117 0.171454 0.000335307)
(-0.0764496 0.502482 0.0387431)
(-0.0560563 0.470916 0.034624)
(-0.0326879 0.37684 0.0222204)
(-0.0042779 0.15174 -0.00236182)
(-0.0815099 0.486535 0.0328739)
(-0.0590256 0.449383 0.0284192)
(-0.0335609 0.350793 0.0165932)
(-0.00419815 0.131273 -0.00450212)
(-0.0865198 0.46796 0.0272781)
(-0.0618847 0.425054 0.0226798)
(-0.0343943 0.322664 0.0116751)
(-0.00426187 0.110163 -0.00612006)
(-0.0912176 0.446569 0.0219927)
(-0.0644445 0.397909 0.0174688)
(-0.0350916 0.292525 0.00754453)
(-0.00445567 0.0884158 -0.00704662)
(-0.095281 0.422198 0.0171038)
(-0.0664968 0.367975 0.0129215)
(-0.0355761 0.260449 0.00422934)
(-0.00483918 0.066048 -0.00731988)
(-0.098298 0.394709 0.0127807)
(-0.0677673 0.335236 0.00915645)
(-0.035718 0.226376 0.00185649)
(-0.00544256 0.042237 -0.00625219)
(-0.0998061 0.363952 0.0091409)
(-0.0679647 0.299704 0.00619047)
(-0.0356023 0.190251 0.000487347)
(-0.00654759 0.0173635 -0.00352375)
(-0.0991374 0.329749 0.00607217)
(-0.0662411 0.261349 0.00378102)
(-0.0338919 0.151748 -0.000790187)
(-0.00438209 -0.0180469 -0.00362364)
(-0.0955155 0.291858 0.00324217)
(-0.0619281 0.220311 0.00142326)
(-0.0292438 0.112697 -0.00254403)
(0.000658535 -0.0369279 -0.0065927)
(-0.0880493 0.250371 0.000282387)
(-0.0547436 0.177355 -0.00138547)
(-0.0222138 0.0730109 -0.00506607)
(0.00437727 -0.0498748 -0.00851607)
(-0.0750974 0.20598 -0.00298891)
(-0.0434544 0.134062 -0.00465493)
(-0.0117613 0.0361464 -0.00791631)
(0.00686818 -0.0552145 -0.00995865)
(-0.0538805 0.159728 -0.00657)
(-0.0237959 0.0938306 -0.00816819)
(0.0063257 0.00340995 -0.0104847)
(0.00851491 -0.0514847 -0.0101226)
(-0.019095 0.108354 -0.00942398)
(0.0124532 0.0500971 -0.0111929)
(0.0284898 -0.0109784 -0.0119351)
(0.0129389 -0.0400916 -0.00909618)
(0.041341 0.0542039 -0.00744798)
(0.0634837 0.0254975 -0.00894036)
(0.0556541 0.000204224 -0.00877785)
(0.0189036 -0.0139651 -0.00527174)
(0.0915791 0.0436505 0.0736567)
(0.0421108 0.0350257 0.0608145)
(-0.000521491 0.0220269 0.0510645)
(-0.0238673 -0.000354046 0.0399157)
(-0.00905505 -0.0119974 0.0247513)
(0.165128 0.142823 0.089568)
(0.112931 0.123637 0.0841561)
(0.0668649 0.098049 0.0801234)
(0.0305899 0.0633717 0.0803483)
(0.0050652 0.0169095 0.0752844)
(0.16246 0.242214 0.0634606)
(0.112734 0.213301 0.0742367)
(0.0708663 0.175723 0.0830678)
(0.037166 0.132162 0.0920653)
(0.00940882 0.0835352 0.0896493)
(0.117571 0.317335 0.034285)
(0.0748719 0.286342 0.0593436)
(0.041939 0.243521 0.0797321)
(0.0185947 0.196327 0.0969209)
(0.000673502 0.140911 0.0959198)
(0.0629623 0.367284 0.0209473)
(0.0277279 0.340609 0.0522724)
(0.00449342 0.296998 0.0792918)
(-0.00510896 0.248931 0.101947)
(-0.00897656 0.188526 0.0996348)
(0.00799476 0.406555 0.0188001)
(-0.0179182 0.38168 0.0526308)
(-0.0309405 0.338791 0.0819723)
(-0.0267817 0.292436 0.106836)
(-0.0173245 0.225358 0.102838)
(-0.0454588 0.440533 0.0236372)
(-0.0570626 0.414624 0.0553811)
(-0.0613365 0.373296 0.085772)
(-0.0446911 0.32829 0.11169)
(-0.0237769 0.253386 0.10541)
(-0.0901288 0.469198 0.0286135)
(-0.0902849 0.441429 0.0587452)
(-0.0857679 0.402463 0.0899422)
(-0.058348 0.358484 0.116117)
(-0.0282456 0.274824 0.106765)
(-0.127835 0.493015 0.032475)
(-0.118308 0.463874 0.0619052)
(-0.104648 0.427529 0.0939179)
(-0.0682738 0.38418 0.119549)
(-0.0310245 0.291217 0.106427)
(-0.161069 0.511316 0.0353708)
(-0.141664 0.482223 0.0648477)
(-0.118798 0.448824 0.0973805)
(-0.0751726 0.405958 0.121498)
(-0.0325332 0.303267 0.104182)
(-0.189156 0.52348 0.0380557)
(-0.160192 0.496321 0.0677412)
(-0.128729 0.466461 0.100043)
(-0.0795742 0.424014 0.121725)
(-0.0330069 0.311247 0.0999855)
(-0.173636 0.506052 0.070695)
(-0.13486 0.480486 0.101688)
(-0.0818472 0.43839 0.120191)
(-0.0325677 0.31526 0.0940193)
(-0.180981 0.512283 0.0731585)
(-0.137156 0.491306 0.101992)
(-0.0820938 0.449295 0.116914)
(-0.0312722 0.315535 0.0865973)
(-0.182954 0.516652 0.0748119)
(-0.136198 0.499687 0.100835)
(-0.080603 0.457113 0.112047)
(-0.0292542 0.312506 0.0781359)
(-0.180776 0.52003 0.0753961)
(-0.132771 0.506131 0.0982516)
(-0.0777685 0.462169 0.105842)
(-0.0266994 0.306661 0.0690845)
(-0.175672 0.5228 0.0747961)
(-0.127624 0.510893 0.094387)
(-0.0739897 0.464699 0.0986055)
(-0.0238028 0.298481 0.059864)
(-0.168774 0.525057 0.073048)
(-0.121441 0.514063 0.0894631)
(-0.0696404 0.464875 0.09066)
(-0.0207489 0.288404 0.0508294)
(-0.16098 0.526667 0.0702805)
(-0.114783 0.515605 0.0837346)
(-0.0650376 0.462812 0.0823122)
(-0.017697 0.276811 0.0422517)
(-0.152955 0.527387 0.0666791)
(-0.108084 0.515422 0.0774559)
(-0.0604287 0.45858 0.07383)
(-0.0147698 0.264009 0.0343098)
(-0.145169 0.526945 0.062453)
(-0.101654 0.513389 0.0708611)
(-0.0559953 0.452215 0.0654381)
(-0.0120525 0.250229 0.0271084)
(-0.137932 0.525079 0.0578058)
(-0.0957087 0.509375 0.0641512)
(-0.0518701 0.443724 0.0573047)
(-0.00961047 0.235633 0.0207134)
(-0.13144 0.521558 0.0529189)
(-0.0903796 0.503253 0.0574925)
(-0.0481462 0.43309 0.0495463)
(-0.00749926 0.22033 0.0151497)
(-0.125797 0.516188 0.0479429)
(-0.0857381 0.494909 0.0510104)
(-0.0448801 0.420279 0.0422441)
(-0.00575609 0.204394 0.0104032)
(-0.121043 0.508805 0.0429905)
(-0.0818145 0.484234 0.0447858)
(-0.0421021 0.405248 0.0354622)
(-0.00439162 0.187864 0.00643135)
(-0.117178 0.499262 0.0381384)
(-0.0786085 0.471118 0.038877)
(-0.0398194 0.387958 0.0292502)
(-0.00339298 0.170731 0.00316963)
(-0.114164 0.48742 0.0334485)
(-0.0760915 0.455459 0.0333315)
(-0.0380253 0.36838 0.0236437)
(-0.00274248 0.152986 0.000569014)
(-0.11193 0.473151 0.0289714)
(-0.0742035 0.437169 0.0281861)
(-0.0366767 0.346497 0.0186603)
(-0.00239279 0.134405 -0.0014373)
(-0.110376 0.456337 0.0247486)
(-0.0728629 0.416184 0.0234731)
(-0.0357163 0.322324 0.0143011)
(-0.00231327 0.115193 -0.00298015)
(-0.109366 0.436869 0.0208248)
(-0.0719674 0.392462 0.0192342)
(-0.0350928 0.295892 0.0105783)
(-0.00248631 0.0952486 -0.00415514)
(-0.108727 0.414652 0.0172643)
(-0.0713877 0.366011 0.0155326)
(-0.0347384 0.267294 0.00753938)
(-0.00290885 0.0746093 -0.0049317)
(-0.108221 0.389609 0.0141631)
(-0.070937 0.336872 0.0124794)
(-0.0345157 0.23662 0.00535119)
(-0.00354172 0.0529035 -0.00467074)
(-0.107559 0.361715 0.0116299)
(-0.0704153 0.305165 0.0101995)
(-0.0344282 0.204017 0.00418817)
(-0.00461009 0.0303284 -0.00283555)
(-0.106314 0.331055 0.00975282)
(-0.0694182 0.271197 0.00872828)
(-0.0340883 0.169803 0.00397006)
(-0.00566949 0.00367009 0.000295151)
(-0.103856 0.29787 0.00858428)
(-0.0672192 0.23555 0.00806776)
(-0.0324348 0.13518 0.00430971)
(-0.00395007 -0.0210011 0.0026724)
(-0.0994031 0.262398 0.00808573)
(-0.0630891 0.198597 0.00802495)
(-0.0286277 0.100784 0.00420529)
(-0.000128764 -0.0366116 -0.000469822)
(-0.0922231 0.224837 0.00794727)
(-0.0565453 0.160409 0.00781265)
(-0.022417 0.0659756 0.00360453)
(0.00353129 -0.0488286 -0.0052716)
(-0.0814154 0.185758 0.00789578)
(-0.0471122 0.122086 0.00673153)
(-0.0136254 0.0323907 0.00252305)
(0.00622852 -0.0566798 -0.00795007)
(-0.0649475 0.145718 0.00760103)
(-0.0327777 0.0848258 0.00460025)
(-0.000559843 0.000515303 -0.000590914)
(0.00755364 -0.0580513 -0.00895756)
(-0.0399658 0.105198 0.00809238)
(-0.00963031 0.051568 0.00211613)
(0.0169357 -0.021149 -0.0047751)
(0.00926091 -0.0533162 -0.00795606)
(-0.00192833 0.0600993 0.0139043)
(0.0266043 0.0165654 0.0037777)
(0.0342124 -0.0239427 -0.00277659)
(0.0138435 -0.0405384 -0.00397612)
(0.0511596 0.0202697 0.0336589)
(0.0675069 0.0031728 0.0208319)
(0.0531164 -0.0113449 0.0100366)
(0.0175492 -0.0156276 0.00313132)
(0.0181068 0.0302799 0.0262893)
(-0.00612102 0.021993 0.0222105)
(-0.0201769 0.0120235 0.0175633)
(-0.0206144 -0.00101853 0.0108926)
(-0.00729005 -0.00598305 0.00606503)
(0.0437586 0.126746 0.03567)
(0.0125989 0.103379 0.0358919)
(-0.00831015 0.0749745 0.0359992)
(-0.0136334 0.042741 0.0365169)
(-0.0103288 0.0139965 0.025831)
(0.0182655 0.221327 0.0259377)
(-0.00876048 0.185269 0.0334981)
(-0.0218438 0.146696 0.0400618)
(-0.0190617 0.106704 0.044928)
(-0.0121049 0.0620947 0.0318133)
(-0.0389928 0.283936 0.0183932)
(-0.0507983 0.247994 0.0294051)
(-0.0524875 0.207133 0.0395667)
(-0.0365676 0.163885 0.046562)
(-0.0177111 0.103799 0.0332449)
(-0.0973964 0.319358 0.0160432)
(-0.0943489 0.290255 0.0273296)
(-0.0852732 0.252853 0.0384875)
(-0.055446 0.2096 0.0461342)
(-0.0231081 0.136105 0.0326598)
(-0.145763 0.339694 0.0155436)
(-0.131354 0.318687 0.0257477)
(-0.113542 0.286251 0.036967)
(-0.0717044 0.243617 0.0449809)
(-0.0272973 0.157784 0.0318404)
(-0.18257 0.354164 0.0145439)
(-0.160817 0.338876 0.0235661)
(-0.136099 0.310793 0.0352835)
(-0.0844057 0.268245 0.0439043)
(-0.0300642 0.17135 0.0311624)
(-0.209428 0.36546 0.0122415)
(-0.183754 0.353453 0.0211485)
(-0.153053 0.328821 0.033745)
(-0.093496 0.285944 0.04307)
(-0.0314541 0.179184 0.0304488)
(-0.229753 0.37404 0.00893807)
(-0.201454 0.363818 0.0188007)
(-0.16516 0.341869 0.0324242)
(-0.0993782 0.298505 0.0423621)