/*--------------------------------*- C++ -*----------------------------------*\
| =========                 |                                                 |
| \\      /  F ield         | OpenFOAM: The Open Source CFD Toolbox           |
|  \\    /   O peration     | Version:  2.3.1                                 |
|   \\  /    A nd           | Web:      www.OpenFOAM.org                      |
|    \\/     M anipulation  |                                                 |
\*---------------------------------------------------------------------------*/
FoamFile
{
    version     2.0;
    format      ascii;
    class       volScalarField;
    location    "8";
    object      T;
}
// * * * * * * * * * * * * * * * * * * * * * * * * * * * * * * * * * * * * * //

dimensions      [0 0 0 1 0 0 0];

internalField   nonuniform List<scalar> 
1227
(
290.193
290.198
290.214
290.315
290.329
290.316
290.308
290.303
290.298
290.294
290.29
290.286
290.283
290.279
290.276
290.273
290.27
290.268
290.265
290.262
290.258
290.255
290.251
290.249
290.246
290.242
290.237
290.231
290.224
290.215
290.208
290.203
290.199
290.197
290.195
290.137
290.175
290.249
290.324
290.324
290.308
290.297
290.288
290.283
290.278
290.274
290.271
290.267
290.264
290.26
290.257
290.252
290.248
290.243
290.238
290.233
290.229
290.224
290.22
290.216
290.212
290.207
290.201
290.194
290.188
290.182
290.179
290.178
290.179
290.182
290.075
290.163
290.274
290.329
290.322
290.309
290.307
290.31
290.306
290.301
290.296
290.291
290.286
290.281
290.276
290.271
290.267
290.264
290.261
290.259
290.257
290.255
290.253
290.249
290.242
290.228
290.206
290.18
290.163
290.153
290.145
290.139
290.136
290.138
290.142
290.007
290.132
290.279
290.332
290.326
290.316
290.316
290.142
290.132
290.12
290.11
290.101
290.095
290.1
290.111
289.932
290.084
290.269
290.334
290.332
290.326
290.327
290.1
290.104
290.096
290.081
290.064
290.049
290.057
290.084
289.86
290.019
290.243
290.329
290.339
290.335
290.336
290.074
290.08
290.076
290.062
290.038
290.006
290.006
290.054
289.803
289.955
290.203
290.314
290.338
290.339
290.334
290.07
290.066
290.061
290.05
290.026
289.977
289.955
290.019
289.765
289.913
290.157
290.287
290.326
290.331
290.316
290.066
290.062
290.054
290.042
290.018
289.963
289.913
289.98
289.747
289.913
290.118
290.251
290.298
290.31
290.29
290.025
290.033
290.04
290.034
290.011
289.957
289.887
289.943
289.743
289.947
290.109
290.228
290.272
290.244
290.144
289.955
289.963
289.981
289.999
289.996
289.955
289.874
289.91
289.743
289.985
290.129
290.195
290.144
290.026
289.96
289.935
289.937
289.941
289.952
289.963
289.946
289.869
289.883
289.741
289.999
290.098
290.082
290.018
289.994
290.003
290
290.002
290.001
290
289.998
289.995
289.991
289.985
289.98
289.976
289.978
289.99
289.985
289.973
289.958
289.948
289.94
289.936
289.935
289.935
289.942
289.946
289.943
289.938
289.938
289.933
289.864
289.862
289.734
289.982
290.037
290.014
290.002
290.017
290.022
290.021
290.024
290.027
290.032
290.04
290.052
290.066
290.081
290.09
290.081
290.049
290.005
289.988
289.979
289.975
289.972
289.97
289.969
289.97
289.971
289.976
289.975
289.963
289.944
289.928
289.919
289.855
289.845
289.725
289.969
290.007
290.009
290.029
290.047
290.057
290.07
290.091
290.121
290.165
290.226
290.307
290.408
290.521
290.63
290.709
290.718
290.627
290.44
290.313
290.235
290.189
290.158
290.131
290.104
290.079
290.058
290.032
290.002
289.967
289.934
289.911
289.846
289.83
289.715
289.969
290.013
290.035
290.065
290.085
290.109
290.143
290.191
290.259
290.353
290.478
290.641
290.843
291.076
291.323
291.556
291.745
291.838
291.739
291.549
291.34
291.135
290.938
290.747
290.568
290.407
290.27
290.155
290.066
289.998
289.943
289.904
289.834
289.815
289.705
289.981
290.039
290.073
290.105
290.134
290.174
290.23
290.305
290.405
290.534
290.701
290.908
291.156
291.441
291.757
292.096
292.443
292.747
292.797
292.689
292.497
292.253
291.969
291.655
291.32
290.984
290.672
290.402
290.195
290.053
289.958
289.897
289.821
289.8
289.695
290
290.075
290.115
290.152
290.193
290.249
290.322
290.415
290.53
290.675
290.853
291.069
291.321
291.614
291.96
292.382
292.868
293.253
293.268
293.155
293.01
292.845
292.643
292.384
292.055
291.662
291.23
290.803
290.435
290.165
289.991
289.892
289.806
289.784
289.686
290.023
290.117
290.161
290.206
290.26
290.328
290.41
290.508
290.624
290.765
290.936
291.141
291.38
291.668
292.045
292.584
293.288
293.468
293.194
292.918
292.754
292.673
292.625
292.553
292.408
292.154
291.777
291.305
290.809
290.378
290.071
289.897
289.789
289.765
289.677
290.05
290.163
290.214
290.268
290.332
290.406
290.49
290.583
290.689
290.815
290.97
291.158
291.382
291.664
292.077
292.78
293.798
293.337
292.615
292.155
291.957
291.925
291.984
292.082
292.166
292.174
292.038
291.72
291.242
290.703
290.237
289.935
289.773
289.743
289.669
290.083
290.217
290.275
290.338
290.408
290.483
290.561
290.642
290.731
290.837
290.973
291.146
291.354
291.629
292.088
293.026
294.29
292.782
291.738
291.245
291.076
291.073
291.16
291.308
291.5
291.699
291.834
291.807
291.545
291.063
290.496
290.033
289.77
289.717
289.663
290.124
290.279
290.344
290.415
290.488
290.561
290.632
290.7
290.77
290.855
290.974
291.135
291.33
291.598
292.097
293.287
294.486
291.985
290.919
290.536
290.438
290.462
290.547
290.673
290.843
291.063
291.311
291.513
291.544
291.295
290.782
290.203
289.796
289.691
289.661
290.179
290.357
290.432
290.514
290.594
290.666
290.729
290.782
290.83
290.88
290.96
291.109
291.291
291.546
292.031
293.439
293.87
291.192
290.325
290.072
290.026
290.064
290.146
290.259
290.396
290.567
290.785
291.041
291.258
291.283
290.978
290.405
289.862
289.668
289.666
290.257
290.461
290.537
290.611
290.674
290.733
290.794
290.851
290.889
290.908
291.001
291.162
291.34
291.583
292.118
293.395
291.826
290.404
289.899
289.74
289.713
289.748
289.82
289.924
290.053
290.206
290.387
290.608
290.863
291.059
291.003
290.57
289.959
289.653
289.685
290.353
290.575
290.654
290.782
290.984
291.263
291.574
291.84
291.992
292.001
290.267
289.81
289.563
289.479
289.475
289.508
289.563
289.641
289.747
289.886
290.054
290.252
290.488
290.739
290.868
290.641
290.06
289.651
289.732
290.485
290.784
291.019
291.396
291.802
292.049
291.968
291.518
290.819
290.178
289.633
289.41
289.325
289.33
289.363
289.401
289.441
289.485
289.546
289.637
289.768
289.94
290.154
290.407
290.632
290.601
290.131
289.658
289.83
290.779
291.302
291.737
292.069
291.998
291.448
290.628
289.882
289.471
289.401
289.229
289.207
289.259
289.329
289.385
289.422
289.447
289.465
289.486
289.521
289.587
289.7
289.868
290.094
290.352
290.467
290.151
289.669
289.965
291.27
291.933
292.098
291.734
290.915
290.063
289.533
289.356
289.313
289.246
289.092
289.193
289.319
289.412
289.466
289.491
289.502
289.505
289.507
289.511
289.527
289.572
289.669
289.835
290.073
290.27
290.112
289.677
290.052
291.601
292.002
291.47
290.539
289.735
289.352
289.262
289.223
289.157
289.11
289.08
289.267
289.421
289.502
289.534
289.541
289.539
289.533
289.529
289.526
289.526
289.536
289.573
289.665
289.84
290.054
290.023
289.673
290.001
291.381
291.275
290.334
289.575
289.285
289.268
289.277
289.253
289.188
289.081
289.105
289.369
289.509
289.554
289.559
289.552
289.543
289.534
289.526
289.522
289.522
289.527
289.54
289.58
289.684
289.862
289.907
289.655
289.823
290.699
290.282
289.541
289.294
289.341
289.406
289.429
289.411
289.324
289.108
289.14
289.463
289.553
289.561
289.551
289.542
289.534
289.528
289.521
289.515
289.512
289.515
289.524
289.544
289.599
289.722
289.793
289.627
289.622
289.992
289.617
289.32
289.381
289.468
289.502
289.516
289.514
289.455
289.162
289.177
289.519
289.554
289.546
289.539
289.536
289.533
289.53
289.525
289.519
289.514
289.511
289.515
289.528
289.558
289.635
289.701
289.596
289.487
289.563
289.386
289.376
289.468
289.495
289.501
289.51
289.52
289.506
289.257
288.026
288.09
288.102
288.1
288.096
288.016
289.249
289.531
289.541
289.537
289.536
289.537
289.537
289.536
289.533
289.528
289.522
289.517
289.516
289.523
289.541
289.587
289.635
289.567
289.434
289.411
289.383
289.446
289.486
289.49
289.499
289.507
289.512
289.519
289.602
288.967
288.658
288.625
288.647
288.644
288.895
289.619
289.535
289.532
289.536
289.538
289.54
289.541
289.541
289.538
289.534
289.528
289.524
289.521
289.525
289.536
289.563
289.592
289.542
289.425
289.4
289.426
289.475
289.491
289.502
289.515
289.522
289.527
289.526
289.506
289.525
289.554
289.523
289.554
289.591
289.55
289.513
289.534
289.539
289.54
289.541
289.542
289.543
289.543
289.541
289.537
289.532
289.528
289.526
289.528
289.535
289.55
289.563
289.522
289.427
289.424
289.455
289.484
289.497
289.51
289.52
289.527
289.532
289.531
289.529
289.517
289.476
289.435
289.463
289.495
289.523
289.535
289.537
289.54
289.542
289.543
289.544
289.545
289.545
289.543
289.539
289.535
289.531
289.529
289.53
289.535
289.541
289.541
289.505
289.429
289.442
289.468
289.49
289.505
289.517
289.527
289.535
289.539
289.537
289.528
289.513
289.486
289.484
289.5
289.512
289.523
289.532
289.539
289.543
289.545
289.546
289.546
289.547
289.548
289.546
289.542
289.537
289.533
289.531
289.53
289.531
289.53
289.522
289.49
289.428
289.452
289.477
289.497
289.511
289.523
289.532
289.541
289.546
289.544
289.533
289.515
289.493
289.495
289.504
289.515
289.527
289.537
289.544
289.547
289.548
289.549
289.549
289.55
289.55
289.549
289.546
289.54
289.535
289.531
289.528
289.525
289.517
289.506
289.478
289.43
289.459
289.485
289.505
289.518
289.529
289.539
289.548
289.555
289.553
289.542
289.523
289.504
289.506
289.514
289.523
289.534
289.544
289.549
289.552
289.552
289.552
289.552
289.552
289.553
289.553
289.55
289.545
289.539
289.533
289.527
289.519
289.507
289.494
289.469
289.433
289.469
289.496
289.514
289.527
289.537
289.548
289.558
289.567
289.568
289.558
289.541
289.522
289.521
289.528
289.537
289.546
289.553
289.556
289.557
289.556
289.556
289.556
289.556
289.557
289.557
289.556
289.552
289.546
289.538
289.529
289.518
289.502
289.488
289.469
289.472
289.483
289.51
289.525
289.537
289.548
289.56
289.572
289.584
289.59
289.582
289.57
289.552
289.548
289.552
289.557
289.562
289.563
289.562
289.56
289.56
289.562
289.564
289.565
289.565
289.565
289.564
289.561
289.556
289.548
289.538
289.526
289.509
289.492
289.492
289.633
289.563
289.568
289.577
289.586
289.595
289.604
289.613
289.622
289.626
289.617
289.606
289.596
289.588
289.583
289.579
289.575
289.57
289.564
289.561
289.57
289.588
289.599
289.602
289.6
289.597
289.593
289.589
289.584
289.577
289.569
289.559
289.546
289.541
289.54
)
;

boundaryField
{
    floor
    {
        type            empty;
    }
    ceiling
    {
        type            empty;
    }
    fixedWalls
    {
        type            zeroGradient;
    }
    rack2796428BA49E0232CAC645AEBC8DA5C1_fixedWall
    {
        type            zeroGradient;
    }
    rack2796428BA49E0232CAC645AEBC8DA5C1_inlet
    {
        type            fixedValue;
        value           uniform 288.15;
    }
    rack2796428BA49E0232CAC645AEBC8DA5C1_outlet
    {
        type            zeroGradient;
    }
    acu380F56D59CF2B3DF6EFF9D0E6E8D39CB_fixedWall
    {
        type            zeroGradient;
    }
}


// ************************************************************************* //
