/*--------------------------------*- C++ -*----------------------------------*\
| =========                 |                                                 |
| \\      /  F ield         | OpenFOAM: The Open Source CFD Toolbox           |
|  \\    /   O peration     | Version:  2.1.x                                 |
|   \\  /    A nd           | Web:      www.OpenFOAM.org                      |
|    \\/     M anipulation  |                                                 |
\*---------------------------------------------------------------------------*/
FoamFile
{
    version     2.0;
    format      ascii;
    class       volScalarField;
    location    "0";
    object      T;
}
// * * * * * * * * * * * * * * * * * * * * * * * * * * * * * * * * * * * * * //

dimensions      [0 0 0 1 0 0 0];

internalField   uniform 297;

boundaryField
{
    floor
    {
        type            zeroGradient;
    }
    ceiling
    {
        type            zeroGradient;
    }
    fixedWalls
    {
        type            zeroGradient;
    }

    
        
        
            
        
        rack2796428BA49E0232CAC645AEBC8DA5C1_fixedWall
        {
            type            zeroGradient;
        }

		         acu380F56D59CF2B3DF6EFF9D0E6E8D39CB_fixedWall
    {
        type            zeroGradient;
    }
    acu380F56D59CF2B3DF6EFF9D0E6E8D39CB_inlet
    {
        type            zeroGradient;
    }

                acu380F56D59CF2B3DF6EFF9D0E6E8D39CB_outlet
        {
            type            fixedValue;
            value            uniform 289.15;
        }
        acu380F56D59CF2B3DF6EFF9D0E6E8D39CB_inlet
        {
            type            zeroGradient;
        }
    
    
    oldInternalFaces
    {
        type            empty;
    }
}


// ************************************************************************* //