/*--------------------------------*- C++ -*----------------------------------*\
| =========                 |                                                 |
| \\      /  F ield         | OpenFOAM: The Open Source CFD Toolbox           |
|  \\    /   O peration     | Version:  2.1.x                                 |
|   \\  /    A nd           | Web:      www.OpenFOAM.org                      |
|    \\/     M anipulation  |                                                 |
\*---------------------------------------------------------------------------*/
FoamFile
{
    version     2.0;
    format      ascii;
    class       volVectorField;
    location    "0";
    object      U;
}
// * * * * * * * * * * * * * * * * * * * * * * * * * * * * * * * * * * * * * //


dimensions      [0 1 -1 0 0 0 0];

internalField   uniform (0 0 0);

boundaryField
{
    floor
    {
        type            fixedValue;
        value           uniform (0 0 0);
    }
    ceiling
    {
        type            fixedValue;
        value           uniform (0 0 0);
    }
    fixedWalls
    {
        type            fixedValue;
        value           uniform (0 0 0);
    }


    

        
        
            
        
        
        rack2796428BA49E0232CAC645AEBC8DA5C1_fixedWall
        {
            type            fixedValue;
            value           uniform (0 0 0);
        }

		         acu380F56D59CF2B3DF6EFF9D0E6E8D39CB_fixedWall
    {
        type            fixedValue;
        value           uniform (0 0 0);
    }

                        acu380F56D59CF2B3DF6EFF9D0E6E8D39CB_inlet
            {
                type            inletOutlet;     // was: flowRateInletVelocity
                inletValue    uniform (0 0 0);
                value        uniform (0 0 0);
                            }
                acu380F56D59CF2B3DF6EFF9D0E6E8D39CB_outlet
        {
            type                flowRateInletVelocity;
            volumetricFlowRate  1.0; // m3/s
        }
         oldInternalFaces
    {
        type            empty;
    }
}


// ************************************************************************* //