/*--------------------------------*- C++ -*----------------------------------*\
| =========                 |                                                 |
| \\      /  F ield         | OpenFOAM: The Open Source CFD Toolbox           |
|  \\    /   O peration     | Version:  2.3.1                                 |
|   \\  /    A nd           | Web:      www.OpenFOAM.org                      |
|    \\/     M anipulation  |                                                 |
\*---------------------------------------------------------------------------*/
FoamFile
{
    version     2.0;
    format      ascii;
    class       volScalarField;
    location    "600";
    object      alphat;
}
// * * * * * * * * * * * * * * * * * * * * * * * * * * * * * * * * * * * * * //

dimensions      [0 2 -1 0 0 0 0];

internalField   nonuniform List<scalar> 
6852
(
0.00667779
0.0068901
0.00687836
0.00656339
0.00309468
0.00326379
0.00336582
0.00335612
0.00287733
0.00310847
0.00330125
0.0034099
0.00250196
0.00274076
0.00301753
0.00327003
0.00237331
0.00257704
0.0028268
0.00309057
0.00258126
0.00276848
0.00299796
0.00324329
0.00279925
0.00298612
0.00321526
0.00345866
0.00302977
0.00321778
0.00345052
0.00369613
0.00386846
0.00327661
0.00346456
0.00370122
0.00394821
0.00409513
0.00353942
0.00372572
0.00396465
0.00420807
0.004319
0.00382784
0.00401056
0.00424565
0.00446365
0.00452824
0.0041708
0.00433628
0.00454781
0.00470262
0.0047072
0.00454029
0.00467541
0.0048381
0.0049051
0.00483906
0.00490044
0.00499029
0.00506147
0.00504211
0.0049075
0.00520229
0.00521532
0.00519528
0.00509691
0.00490386
0.00537722
0.00532063
0.00522612
0.00506417
0.00482842
0.00541788
0.00530738
0.00515695
0.00494992
0.00468925
0.0053405
0.00519067
0.0050021
0.00476815
0.00449957
0.00516938
0.00499301
0.00478175
0.00453673
0.00427458
0.0049313
0.00473878
0.00451724
0.00427373
0.00402892
0.00465123
0.0044504
0.00422787
0.00399509
0.00377489
0.0043498
0.0041462
0.00392924
0.00371286
0.0035192
0.00404356
0.00383959
0.00363163
0.00343716
0.00327569
0.00374175
0.00354196
0.00334828
0.00317852
0.00304493
0.00345248
0.00326063
0.00308442
0.00293851
0.00282556
0.0031813
0.00300033
0.00284239
0.0027162
0.00261516
0.00293222
0.00276371
0.00262216
0.00250917
0.00241131
0.00270809
0.00255172
0.00242219
0.00231474
0.00221261
0.00251066
0.00236396
0.0022405
0.00213147
0.00202029
0.00234056
0.00219937
0.0020761
0.00196078
0.00183971
0.00219799
0.00205805
0.0019314
0.00180948
0.00168314
0.00208473
0.00194383
0.0018142
0.0016901
0.00156632
0.00200461
0.00186287
0.00173287
0.00161054
0.00148931
0.00195541
0.00181148
0.00167964
0.00155504
0.00143139
0.00191031
0.00176237
0.00162646
0.00149727
0.00137099
0.00183929
0.00168542
0.00154587
0.00141753
0.00129396
0.00176509
0.00160925
0.00146755
0.00133797
0.00121797
0.0016959
0.00154269
0.00140182
0.00127234
0.00115427
0.00163428
0.00148809
0.00135299
0.00122837
0.00111649
0.00160009
0.00145579
0.00132521
0.00120919
0.00110978
0.00345546
0.00309743
0.00278388
0.00252672
0.00233963
0.00282221
0.00298964
0.00311712
0.00315137
0.00304314
0.00212641
0.00214987
0.00222945
0.00234176
0.00234063
0.00213628
0.00194426
0.00192293
0.00233274
0.00225713
0.00216895
0.00203603
0.00272112
0.00240503
0.00223683
0.00211986
0.00398021
0.00317739
0.00269323
0.00240206
0.00501676
0.00389669
0.00316085
0.00270369
0.00566826
0.00438328
0.00350245
0.00293612
0.00598284
0.00463615
0.00369961
0.00308137
0.00249971
0.00597143
0.00466135
0.00375073
0.00313543
0.00250851
0.00557052
0.00445257
0.00365919
0.003035
0.00248855
0.00494307
0.00410716
0.00347275
0.0028413
0.00246428
0.00436059
0.00374733
0.00322534
0.00267662
0.00246006
0.00388015
0.00342841
0.00291123
0.00257621
0.00248211
0.00350542
0.00306897
0.00271106
0.00254344
0.00252352
0.00311844
0.00282212
0.0026236
0.00255528
0.00257197
0.00288408
0.00270737
0.00260511
0.00258712
0.00261634
0.0027791
0.00267022
0.00261798
0.00262127
0.00264948
0.00274112
0.00266782
0.00263901
0.00264775
0.00266839
0.00273176
0.00267626
0.00265645
0.00266259
0.00267327
0.00273176
0.00268429
0.00266581
0.00266566
0.00266627
0.00273282
0.00268785
0.00266668
0.00265894
0.00265062
0.00273216
0.00268654
0.00266073
0.00264538
0.00262992
0.00272981
0.00268156
0.00265036
0.00262826
0.00260785
0.00272672
0.00267479
0.00263827
0.00261076
0.00258792
0.00272504
0.00266858
0.00262699
0.00259567
0.00257394
0.00272517
0.00266466
0.00261931
0.00258695
0.00257173
0.00272832
0.00266511
0.0026184
0.0025893
0.00258747
0.00273615
0.00267264
0.00262853
0.00260891
0.00262814
0.00275121
0.00269149
0.00265615
0.00265417
0.00270109
0.0027783
0.00272903
0.00271119
0.00273532
0.00281062
0.00282658
0.00279739
0.00280645
0.00285929
0.00294361
0.00291189
0.00291229
0.0029489
0.0030085
0.00307954
0.00304841
0.00306855
0.00310865
0.00316052
0.00320343
0.00320806
0.00323107
0.00326448
0.00329498
0.00330001
0.00335987
0.00337641
0.00339301
0.00339842
0.0033709
0.00346623
0.003479
0.00348429
0.00346932
0.00341291
0.00352283
0.00353927
0.00353762
0.00350386
0.00341697
0.0035277
0.00354813
0.00353895
0.00348418
0.00336302
0.00320112
0.00323385
0.00322742
0.0031639
0.00302424
0.00167667
0.00153818
0.00141825
0.00131786
0.00121754
0.0028698
0.00305296
0.0031795
0.00318691
0.00305174
0.00217164
0.00210321
0.00203577
0.00204424
0.00213311
0.00226466
0.00223998
0.00207669
0.00193352
0.00191378
0.00195744
0.0019721
0.00196267
0.00182908
0.0017079
0.00178038
0.00187067
0.00303349
0.00207976
0.00190079
0.00192698
0.00453513
0.00273491
0.00220992
0.0021109
0.00560086
0.00330079
0.00253713
0.00233915
0.00612467
0.0036238
0.00278873
0.00254827
0.00605065
0.00366567
0.00292571
0.00270332
0.00255918
0.00507533
0.0034266
0.00293649
0.00278857
0.00256787
0.00408369
0.0032182
0.00292804
0.00283738
0.00250055
0.00369029
0.00312938
0.00294216
0.00279997
0.0023879
0.00357743
0.00313298
0.00296957
0.00267592
0.00227185
0.0035882
0.00317545
0.00293785
0.0025196
0.00218242
0.00362881
0.00321379
0.00280742
0.00238022
0.00212754
0.00364898
0.0031388
0.0026516
0.00228158
0.00210232
0.00355818
0.00299311
0.00252079
0.00222238
0.0020976
0.00339798
0.00284603
0.00242792
0.00219214
0.00210479
0.00322904
0.00272461
0.00236705
0.00218019
0.00211754
0.00307949
0.00263104
0.00232844
0.00217854
0.00213183
0.00295407
0.00255966
0.00230401
0.00218206
0.00214557
0.00284965
0.00250439
0.00228837
0.00218784
0.00215795
0.00276524
0.00246087
0.00227824
0.00219449
0.0021691
0.00269466
0.00242976
0.00227369
0.00220225
0.00218018
0.00263616
0.00240725
0.0022736
0.00221173
0.00219307
0.00258867
0.00239206
0.00227738
0.00222363
0.00221001
0.00255163
0.00238361
0.00228533
0.00223958
0.00223399
0.00252483
0.00238205
0.00229866
0.0022622
0.00226853
0.00250856
0.00238841
0.00231973
0.00229521
0.00231747
0.00250401
0.00240512
0.00235242
0.00234342
0.00238463
0.00251398
0.00243654
0.00240231
0.00241218
0.00247287
0.00254384
0.00248928
0.0024759
0.00250596
0.00258393
0.00260129
0.00257032
0.00257841
0.00262808
0.00271935
0.00269292
0.00268539
0.00271456
0.00278185
0.00288105
0.00282665
0.00284147
0.00288897
0.0029665
0.00306231
0.0030121
0.00304089
0.00309477
0.00316865
0.00324665
0.0032452
0.0032773
0.00332418
0.00337677
0.0034156
0.00352559
0.00354929
0.00357191
0.00357941
0.0035494
0.00349947
0.00353054
0.00353795
0.00350361
0.00340642
0.00167204
0.00156139
0.00146409
0.00137988
0.00129562
0.00300325
0.0031359
0.00320943
0.00317484
0.00300647
0.00198253
0.00194371
0.00197115
0.00205437
0.00215491
0.00237176
0.00232318
0.00216826
0.00204711
0.00201686
0.00190873
0.00200984
0.00201611
0.00201108
0.00140673
0.00163643
0.0018231
0.00193613
0.00179163
0.0015643
0.00172734
0.00187829
0.00257253
0.00169785
0.00174453
0.0018751
0.00316584
0.00185796
0.00181798
0.00191666
0.00339841
0.00195956
0.00190134
0.00197571
0.00322221
0.00199316
0.00196954
0.00203596
0.00245338
0.00199175
0.00200945
0.00209639
0.00231773
0.00208421
0.00202478
0.00204863
0.00218012
0.00239289
0.00211134
0.00205759
0.00210356
0.00229144
0.00241582
0.00216709
0.0021035
0.00219022
0.00239474
0.00238688
0.00223665
0.00218187
0.00230222
0.00245575
0.00232591
0.00233627
0.00229291
0.00241799
0.00246361
0.00225689
0.00246312
0.00242292
0.00250059
0.00243252
0.00219623
0.00260348
0.00254564
0.00253656
0.00238414
0.00215069
0.00273948
0.00263252
0.00253422
0.00233467
0.00212056
0.0028454
0.0026766
0.00250917
0.00229211
0.00210323
0.00290869
0.00268481
0.0024744
0.00225873
0.00209548
0.00293108
0.00266824
0.00243778
0.00223397
0.00209444
0.00292055
0.00263681
0.00240318
0.00221629
0.00209797
0.0028867
0.00259774
0.00237212
0.00220412
0.0021047
0.00283794
0.0025562
0.00234523
0.00219632
0.00211399
0.00278107
0.00251531
0.00232259
0.00219225
0.00212588
0.00272134
0.00247705
0.00230419
0.00219171
0.00214092
0.00266264
0.00244272
0.00229015
0.0021951
0.00216025
0.00260789
0.00241334
0.00228097
0.00220342
0.00218547
0.00255931
0.00239
0.00227773
0.00221835
0.00221867
0.00251882
0.00237417
0.00228224
0.00224227
0.0022623
0.00248849
0.00236799
0.00229716
0.00227816
0.00231903
0.002471
0.0023746
0.00232603
0.00232941
0.00239147
0.00247019
0.00239828
0.00237315
0.00239971
0.00248218
0.00249146
0.00244464
0.00244378
0.00249333
0.00259412
0.00254303
0.00252177
0.00254491
0.00261545
0.00273075
0.00264028
0.00264461
0.00268959
0.00277558
0.00289643
0.00281932
0.00284335
0.00289935
0.00298437
0.00308794
0.00312991
0.00315936
0.00320465
0.00325728
0.0033013
0.00330416
0.00333916
0.0033634
0.00336264
0.00331825
0.00163348
0.00153365
0.00144676
0.00137285
0.00130196
0.00297741
0.0030737
0.00310381
0.00302018
0.00280686
0.00210314
0.00216556
0.00225263
0.00234189
0.00239
0.00243032
0.00240432
0.00232144
0.00230323
0.00232006
0.00150984
0.00195041
0.00216093
0.0022059
0.00227431
0.00133272
0.00189549
0.00210628
0.00219869
0.00136006
0.00176936
0.00207411
0.00215493
0.00157786
0.00177561
0.00210666
0.00214887
0.00173409
0.00184484
0.00218394
0.00216544
0.00177094
0.00194578
0.00225569
0.00215947
0.00171131
0.00208674
0.00227141
0.00212215
0.00165579
0.00228531
0.00220646
0.00206824
0.00214823
0.00233124
0.00211311
0.00201687
0.00200232
0.00234842
0.00225749
0.0020397
0.00197996
0.0019815
0.00233742
0.00216564
0.00199506
0.00196249
0.00197591
0.00227049
0.00209449
0.00197484
0.00196241
0.00198116
0.00220531
0.00205017
0.00197582
0.00197414
0.00199297
0.0021555
0.00202903
0.00199013
0.00199204
0.00200812
0.00212342
0.00202714
0.00200993
0.00201184
0.00202454
0.00210862
0.00203991
0.00203181
0.00203094
0.00204106
0.0021105
0.00206302
0.00205304
0.00204816
0.0020571
0.00212492
0.00208827
0.00207202
0.00206325
0.00207253
0.00214768
0.00211005
0.00208821
0.00207651
0.00208758
0.00217035
0.00212827
0.00210178
0.0020886
0.0021028
0.00218921
0.00214315
0.00211342
0.00210041
0.00211908
0.00220434
0.00215535
0.00212412
0.00211309
0.00213761
0.00221618
0.00216587
0.00213515
0.00212798
0.00215988
0.00222565
0.00217603
0.002148
0.00214668
0.0021876
0.00223413
0.00218751
0.00216448
0.00217111
0.00222273
0.00224356
0.00220242
0.00218677
0.00220347
0.00226729
0.00225648
0.00222336
0.00221746
0.0022462
0.00232322
0.00227618
0.00225353
0.00225954
0.00230178
0.002392
0.00230674
0.00229667
0.00231615
0.00237236
0.00247412
0.0023529
0.0023568
0.00239019
0.00245911
0.00256839
0.00241974
0.0024377
0.00248362
0.00256162
0.00267183
0.00251196
0.00254214
0.00259679
0.0026777
0.00278055
0.00263243
0.00267065
0.00272782
0.00280353
0.00289033
0.00278016
0.00282041
0.00287225
0.00293352
0.0029954
0.00294964
0.00298552
0.00302422
0.0030613
0.00308742
0.00312923
0.00315739
0.00317635
0.00317961
0.00315831
0.0031183
0.00314132
0.00314219
0.0031101
0.00303373
0.00166496
0.00153839
0.00142733
0.00133357
0.00124426
0.00605755
0.00619452
0.00615459
0.00583076
0.00525454
0.00271737
0.00281275
0.00284733
0.00273086
0.00249576
0.00262096
0.00279269
0.00297392
0.00289743
0.0026505
0.00132189
0.00182261
0.00276414
0.00299448
0.00282607
0.00137214
0.00127134
0.00254332
0.00310722
0.00296593
0.00122543
0.00242875
0.00324503
0.00308904
0.00125919
0.00250823
0.00339046
0.00321215
0.0012837
0.00267313
0.00353803
0.0033438
0.00129093
0.00289866
0.00369136
0.00348364
0.00130845
0.00322501
0.00385298
0.00363248
0.00159749
0.0036667
0.00401941
0.00377962
0.00335738
0.00407034
0.00416048
0.00390087
0.0039123
0.00424954
0.00422228
0.00397411
0.00368
0.00413001
0.00429555
0.00422679
0.00400248
0.0037253
0.00414429
0.00425327
0.00418786
0.00399342
0.00374025
0.00407314
0.00416771
0.00412147
0.00395698
0.00373167
0.00397438
0.00406654
0.0040397
0.00390326
0.00370635
0.00387361
0.00396395
0.00395105
0.00383994
0.00366965
0.00378031
0.0038666
0.00386202
0.00377193
0.00362509
0.00369703
0.00377661
0.00377545
0.00370173
0.00357449
0.00362283
0.00369182
0.00369173
0.00362996
0.00351829
0.00355598
0.00361078
0.00360989
0.00355606
0.00345597
0.00349256
0.00353277
0.00352836
0.00347878
0.00338642
0.00343066
0.0034558
0.00344527
0.00339656
0.00330825
0.00336874
0.0033777
0.00335875
0.00330777
0.00322002
0.00330465
0.00329638
0.00326701
0.00321085
0.00312035
0.00323618
0.00320992
0.00316837
0.00310436
0.003008
0.00316125
0.00311652
0.0030613
0.00298704
0.00288198
0.00307784
0.00301446
0.00294436
0.00285782
0.00274161
0.00298395
0.00290201
0.00281623
0.00271585
0.00258665
0.00287742
0.00277744
0.00267568
0.00256067
0.00241751
0.00275612
0.0026391
0.00252184
0.00239243
0.00223569
0.00261801
0.00248575
0.00235454
0.00221244
0.00204437
0.00246206
0.00231728
0.00217499
0.0020237
0.00184893
0.00228909
0.00213539
0.00198624
0.00183111
0.00165685
0.00210278
0.00194439
0.00179338
0.00164082
0.00147537
0.00191149
0.0017522
0.0016035
0.00145846
0.00130731
0.00173068
0.0015755
0.00143034
0.00129359
0.00115812
0.00161383
0.00145432
0.00131081
0.00117936
0.00105873
0.00159648
0.0014425
0.00130276
0.00118003
0.00108146
0.00343362
0.0030729
0.00275678
0.002499
0.00235979
0.00121676
0.00263733
0.00231928
0.00122373
0.00447198
0.00119566
0.00119315
0.0011931
0.00120093
0.00121681
0.00268644
0.0008596
0.00176762
0.00639202
0.000858101
0.00859782
0.000854028
0.00891581
0.000855165
0.000855503
0.000856843
0.000857534
0.00177296
0.000748506
0.000630991
0.000615193
0.000622057
0.000598049
0.000409933
0.00031877
0.000322286
0.000351853
0.00034762
0.000770946
0.000685377
0.000381536
0.000412472
0.000414813
0.000902378
0.000454214
0.000464179
0.000946448
0.000481071
0.000501116
0.000958974
0.00050472
0.000536685
0.000953227
0.000524624
0.000569433
0.000943196
0.000543414
0.000601377
0.000944201
0.000567531
0.000636998
0.000990168
0.000604695
0.000674861
0.00110933
0.000652809
0.000716228
0.00106003
0.000579871
0.000701218
0.000755921
0.000553191
0.000631901
0.000744225
0.000792697
0.000616935
0.000685025
0.000783871
0.000827961
0.000674593
0.000738604
0.00081771
0.000861868
0.000726855
0.000786767
0.000850768
0.000895222
0.000928485
0.000776546
0.000829047
0.000884095
0.00092855
0.000964748
0.000822387
0.000868608
0.000917841
0.000962032
0.00100068
0.00086587
0.000906908
0.000951902
0.000995545
0.00103594
0.000908153
0.000944572
0.000986051
0.00102878
0.00107005
0.000949679
0.000981776
0.00101997
0.00106132
0.00110252
0.000990539
0.00101844
0.00105326
0.0010927
0.00113282
0.00103066
0.0010543
0.00108546
0.00112235
0.00116028
0.00106985
0.00108896
0.00111601
0.00114958
0.00118343
0.00110782
0.0011219
0.00114423
0.00117355
0.00120213
0.00114403
0.00115242
0.00116921
0.00119319
0.00121567
0.00117802
0.0011796
0.0011897
0.00120729
0.00122294
0.00120947
0.00120212
0.00120424
0.00121445
0.00122268
0.00123758
0.00121852
0.00121138
0.00121303
0.00121371
0.00126015
0.00122876
0.00120962
0.00120164
0.0011953
0.00127569
0.00123185
0.00119867
0.00118009
0.00116732
0.00128308
0.00122664
0.00118127
0.00114949
0.00112934
0.00128259
0.0012151
0.00115908
0.00111637
0.00108771
0.00127743
0.00120245
0.00113914
0.00108965
0.00105159
0.00127421
0.00119691
0.00113097
0.00107719
0.0010327
0.00127969
0.00120464
0.00113955
0.00108367
0.0010349
0.00129341
0.00122166
0.00115746
0.00109944
0.00104517
0.001302
0.00123158
0.00116541
0.00110292
0.00104169
0.00127798
0.00120872
0.00113855
0.00106868
0.000998617
0.0011976
0.00112564
0.00104988
0.000971664
0.000891512
0.00235139
0.00218325
0.00200019
0.00180576
0.00160434
0.000506567
0.000424112
0.000362459
0.000325054
0.000295974
0.000804525
0.000732018
0.000662762
0.000605241
0.000563199
0.000517307
0.000439501
0.000458048
0.000580904
0.000657675
0.000398016
0.000705847
0.00089739
0.000432179
0.000909225
0.00120068
0.000459755
0.00113612
0.00153353
0.000477
0.00133213
0.00182159
0.000489514
0.00149442
0.00204846
0.000512551
0.00161115
0.0022006
0.000556414
0.0017067
0.00231415
0.000633497
0.00180756
0.00240267
0.000563195
0.00100746
0.00204041
0.00250555
0.00118329
0.00148529
0.00225353
0.00257858
0.00172755
0.00193498
0.00242218
0.00261207
0.00214108
0.0022704
0.00253161
0.00260689
0.00241184
0.00247553
0.00258266
0.0025701
0.00256534
0.00257821
0.00258774
0.00251187
0.00233651
0.00264069
0.00261576
0.00256414
0.00244288
0.00223835
0.00267349
0.00262071
0.00252841
0.00237279
0.00214264
0.00269037
0.00261587
0.00249354
0.00230936
0.0020553
0.00270777
0.00261542
0.00246819
0.00225805
0.00198052
0.00273305
0.00262604
0.00245677
0.00222172
0.00192025
0.00276639
0.0026479
0.00246007
0.00220057
0.00187202
0.00280332
0.00267738
0.00247576
0.00219261
0.00182385
0.00283655
0.00270945
0.00249924
0.00219521
0.00178554
0.00285793
0.00273942
0.00252373
0.00220634
0.0017583
0.00286427
0.00276108
0.00254531
0.00222282
0.00174144
0.00285399
0.00276681
0.00256654
0.00224138
0.00173785
0.0028284
0.0027591
0.00258611
0.0022626
0.00175272
0.00279219
0.00274275
0.00259693
0.00229922
0.00179306
0.00275207
0.00272475
0.00260656
0.00235358
0.00187019
0.00271649
0.00271364
0.00262334
0.00241055
0.00197854
0.00269374
0.00271597
0.00265293
0.00247506
0.00211682
0.00268713
0.00273121
0.00269131
0.00254287
0.00224444
0.00268783
0.00274564
0.0027215
0.00259675
0.00234232
0.00267305
0.00273517
0.00272055
0.00261567
0.00239749
0.00261805
0.00267997
0.00267258
0.00258508
0.00239743
0.00250937
0.00257425
0.0025758
0.00250314
0.00233926
0.00225203
0.00236578
0.00241989
0.00236835
0.00222452
0.00189432
0.00197464
0.00202399
0.00201227
0.00192237
0.00113067
0.00107071
0.00100608
0.000936971
0.000863482
0.000645687
0.000558628
0.00047777
0.000408945
0.000351717
0.000869968
0.000820103
0.00076546
0.000709073
0.000656382
0.000660247
0.000578861
0.000510041
0.000555918
0.000654285
0.000384138
0.000750242
0.00101974
0.000449157
0.00105196
0.00146974
0.000517025
0.00133042
0.0019092
0.000564763
0.00154378
0.00225055
0.000604089
0.00170745
0.00249185
0.000652473
0.00182139
0.00266171
0.000705238
0.00193023
0.0027927
0.000787838
0.00204767
0.00290034
0.000693017
0.00115746
0.00234979
0.00304274
0.00137941
0.00173932
0.0026507
0.00315737
0.00207668
0.00232828
0.00291368
0.00323395
0.00263376
0.0027848
0.00310686
0.00327228
0.00301686
0.00308467
0.00322839
0.00328148
0.00325949
0.00326521
0.00329675
0.00327392
0.00341171
0.00337299
0.0033343
0.00326016
0.00314542
0.00351408
0.00344302
0.00335925
0.00324792
0.00310154
0.00359225
0.00349742
0.00338253
0.00324144
0.00306446
0.00365983
0.00354806
0.00340937
0.0032426
0.00303427
0.00372213
0.00359947
0.00344129
0.00325143
0.00301141
0.00377917
0.00364978
0.00347878
0.00326678
0.00299566
0.00382814
0.00369602
0.00351913
0.00328658
0.00298519
0.00386542
0.0037342
0.00355748
0.00330827
0.00297912
0.00388814
0.00376006
0.00358435
0.00333276
0.00297583
0.00389502
0.0037714
0.00359907
0.00335401
0.00297423
0.00388635
0.00376787
0.00360022
0.00336174
0.00297997
0.00386363
0.0037505
0.00358783
0.00335578
0.0029912
0.003829
0.00372082
0.00356307
0.00333818
0.00299487
0.00378396
0.00367979
0.00352653
0.00330836
0.00298092
0.00372815
0.00362682
0.00347787
0.00326774
0.00296035
0.00365852
0.00355923
0.00341599
0.00321773
0.00293509
0.00356957
0.00347296
0.00333891
0.00315773
0.00290371
0.00345594
0.00336473
0.0032443
0.00308522
0.00286361
0.00331675
0.00323424
0.00313006
0.0029945
0.00280534
0.00316293
0.00309077
0.00300139
0.0028848
0.00272062
0.00302454
0.00296379
0.00288376
0.00277502
0.00261944
0.00287294
0.0028563
0.00279334
0.00268046
0.00251623
0.00243699
0.0024727
0.00246376
0.00239884
0.00227017
0.00121566
0.00116385
0.00110607
0.00104205
0.000971553
0.000736647
0.000653204
0.000572058
0.000495231
0.000424861
0.000876076
0.000835648
0.000790531
0.000741432
0.00069136
0.000756125
0.000680804
0.000578151
0.00056204
0.000603881
0.000395327
0.000745071
0.000991185
0.000490911
0.00120679
0.0016734
0.000588034
0.00151893
0.00219236
0.000652281
0.00173006
0.00254567
0.0007037
0.00188931
0.00278707
0.000761814
0.00200466
0.00294814
0.000824657
0.00212289
0.00306715
0.000917194
0.00224127
0.00315363
0.000827219
0.00130979
0.00254943
0.00326343
0.00157336
0.00198028
0.00287455
0.00333681
0.00237187
0.00263474
0.00313486
0.003372
0.002964
0.00308559
0.00329455
0.0033717
0.0033201
0.00333367
0.0033706
0.00335034
0.00351282
0.00345519
0.00340053
0.00332475
0.00361989
0.00351842
0.00341559
0.00330638
0.00369179
0.00356352
0.00343329
0.00330067
0.00318193
0.00375295
0.00360804
0.00346016
0.00330857
0.0031667
0.0038113
0.00365636
0.00349614
0.0033284
0.00316268
0.00386605
0.00370617
0.00353778
0.00335701
0.00316739
0.00391274
0.00375242
0.00357989
0.00338936
0.00317926
0.00394627
0.00378947
0.00361695
0.00342118
0.00319573
0.00396282
0.00381256
0.00364362
0.0034476
0.00321342
0.00396105
0.003819
0.00365637
0.00346384
0.00322428
0.00394181
0.00380842
0.00365379
0.0034671
0.00322627
0.0039073
0.00378224
0.00363609
0.00345686
0.00322017
0.00386016
0.00374245
0.00360432
0.00343362
0.00320429
0.00380245
0.00369066
0.00355983
0.00339791
0.00317706
0.00373462
0.00362737
0.00350343
0.00335071
0.00314068
0.00365479
0.00355155
0.00343527
0.00329399
0.00310001
0.00355958
0.00346149
0.00335548
0.00322971
0.00305825
0.00344584
0.00335573
0.0032632
0.0031565
0.00301189
0.00331283
0.00323365
0.00315641
0.00306959
0.0029519
0.00316373
0.00309676
0.0030341
0.00296462
0.00286944
0.00301413
0.00295902
0.00290801
0.00285
0.00276786
0.00290862
0.00286349
0.00281805
0.00276014
0.00267285
0.00286625
0.00282936
0.00277531
0.0026966
0.0025782
0.00253405
0.00254659
0.00252511
0.00246009
0.00234063
0.00132659
0.00127799
0.00122129
0.00115664
0.00108449
0.000793644
0.00071553
0.000638635
0.000562954
0.000490525
0.000875779
0.000837624
0.00079576
0.000750882
0.000705182
0.000815709
0.000747332
0.000632114
0.000598215
0.000618665
0.000426774
0.000800864
0.00108899
0.000545714
0.00140992
0.00194158
0.000655266
0.00173744
0.00250778
0.000725891
0.00194214
0.00285672
0.000783027
0.00210045
0.00307688
0.00085006
0.00221445
0.00321184
0.000922681
0.00233634
0.00330101
0.00102567
0.00242692
0.0033433
0.000745141
0.000952102
0.00146836
0.00277107
0.0034007
0.0017922
0.00224866
0.0031003
0.00342878
0.00269361
0.00294287
0.00331728
0.00340937
0.00327199
0.00333166
0.00340118
0.0033535
0.00354229
0.00347909
0.00340161
0.0032884
0.00364495
0.00351594
0.00337803
0.00323729
0.00368878
0.00352773
0.00336562
0.00321097
0.00372586
0.00354934
0.00337577
0.00321054
0.0037702
0.00358642
0.00340624
0.00323136
0.00307504
0.00381824
0.00363258
0.00344931
0.00326681
0.00309316
0.00386093
0.00367825
0.0034962
0.00330989
0.00312237
0.00388982
0.00371482
0.00353873
0.00335379
0.0031569
0.00389927
0.00373591
0.00357007
0.00339178
0.0031912
0.00388696
0.00373773
0.00358516
0.003418
0.00321955
0.00385404
0.00372002
0.00358244
0.00342925
0.00323795
0.00380365
0.0036848
0.00356267
0.00342459
0.0032446
0.0037394
0.0036349
0.00352773
0.0034049
0.00323907
0.00366438
0.00357294
0.00347967
0.00337168
0.00322167
0.00358096
0.00350103
0.00342053
0.00332685
0.00319391
0.00349047
0.00342068
0.0033523
0.003273
0.00315882
0.00339283
0.00333223
0.00327564
0.00321103
0.00311659
0.00328755
0.00323572
0.00319062
0.00314052
0.00306563
0.00317469
0.00313167
0.00309742
0.00306068
0.00300368
0.0030555
0.00302115
0.00299651
0.00297107
0.00292873
0.00293152
0.00290557
0.00288934
0.00287286
0.00284127
0.00281671
0.00279973
0.00279059
0.00277937
0.00275198
0.00276287
0.00275576
0.00275035
0.00273563
0.00269739
0.00278974
0.0027837
0.00276944
0.00273455
0.00266035
0.00250279
0.00253195
0.00253324
0.00249293
0.00239495
0.00145714
0.00140979
0.00135142
0.00128297
0.00120608
0.00082671
0.000752786
0.000679876
0.000607674
0.000538219
0.000877757
0.000839938
0.000799353
0.000757406
0.000716293
0.00084865
0.000784479
0.00067054
0.00064764
0.000681885
0.000452614
0.00104016
0.00140794
0.000600999
0.00166275
0.00230825
0.000711163
0.00198247
0.00285769
0.000782853
0.00217747
0.00316635
0.000845646
0.00233158
0.00334475
0.000920179
0.00244187
0.00344235
0.00100181
0.00255222
0.00348864
0.00111444
0.00262926
0.00349333
0.000887325
0.00106517
0.00164238
0.00300813
0.00352155
0.00196088
0.0020379
0.0025457
0.00332522
0.00350399
0.00303448
0.00324585
0.00347703
0.00342774
0.00355146
0.00353351
0.00347475
0.00332214
0.00370751
0.00357225
0.00340937
0.00322806
0.00372438
0.00354353
0.00335469
0.00316999
0.00372528
0.00353021
0.00333717
0.00315174
0.00374602
0.00354742
0.0033544
0.00316696
0.00378242
0.00358484
0.00339384
0.00320531
0.00382029
0.00362769
0.00344188
0.0032555
0.00306344
0.00384669
0.00366355
0.00348744
0.00330833
0.00311539
0.00385368
0.00368423
0.00352214
0.00335578
0.0031691
0.00383819
0.0036856
0.0035406
0.00339113
0.00321684
0.00380067
0.00366645
0.00353978
0.00340925
0.00325187
0.00374457
0.00362893
0.00352056
0.00340913
0.00327099
0.00367388
0.00357628
0.0034854
0.00339203
0.00327383
0.00359162
0.00351116
0.00343671
0.00335996
0.00326109
0.0034996
0.00343509
0.00337598
0.00331428
0.00323293
0.00339951
0.00334947
0.00330453
0.00325657
0.00319067
0.00329308
0.00325598
0.0032245
0.00318991
0.00313849
0.00318243
0.00315645
0.0031374
0.00311572
0.00307789
0.00307107
0.00305435
0.00304608
0.00303607
0.00301054
0.00296317
0.00295387
0.0029544
0.00295426
0.00293904
0.0028609
0.00285739
0.00286474
0.00287277
0.00286584
0.00276208
0.00276414
0.00277779
0.00279295
0.00279319
0.00267954
0.00268867
0.00270772
0.00272689
0.00273033
0.00267371
0.00269157
0.00271175
0.00272576
0.00271896
0.00275485
0.00278572
0.00280813
0.00281059
0.00277412
0.00246128
0.00252905
0.00257313
0.00257335
0.00250663
0.00160343
0.00155574
0.0014934
0.00141874
0.00133486
0.000843319
0.000771358
0.000700556
0.000631595
0.000566997
0.000881244
0.000843475
0.000804195
0.000766163
0.000732005
0.000862555
0.000798565
0.000697834
0.00071396
0.000802493
0.000490807
0.00136409
0.00184802
0.000651417
0.00195312
0.00272541
0.00075474
0.00224211
0.00320389
0.000827958
0.00241856
0.00344338
0.000895064
0.00256629
0.00356859
0.00097556
0.00266902
0.0036272
0.00106483
0.00276484
0.00364941
0.00118845
0.00284997
0.00363811
0.00102005
0.00116937
0.00183724
0.00326179
0.00364482
0.00220307
0.00230977
0.00286469
0.00355142
0.00358259
0.0033112
0.00337819
0.00353385
0.0036252
0.00345421
0.00379449
0.00370159
0.00354279
0.00331411
0.00383635
0.00365
0.00343577
0.00321205
0.00379352
0.00358706
0.00337487
0.00316465
0.0037752
0.00356955
0.00336564
0.00316336
0.00378887
0.0035874
0.00339055
0.00319382
0.00381561
0.00361999
0.00343102
0.00324146
0.00383809
0.00365118
0.00347272
0.00329392
0.00384528
0.00367051
0.00350588
0.00334159
0.00316395
0.00383259
0.00367273
0.00352422
0.00337794
0.00321805
0.00379998
0.00365704
0.00352551
0.0033984
0.00325955
0.00374965
0.00362427
0.0035092
0.00339992
0.0032825
0.00368516
0.00357729
0.0034778
0.00338433
0.00328605
0.00360892
0.00351834
0.00343369
0.00335411
0.00327181
0.00352142
0.00344798
0.00337812
0.00331111
0.0032417
0.00342188
0.0033656
0.00331115
0.00325618
0.00319711
0.00331124
0.00327184
0.00323314
0.00319085
0.00314099
0.00319155
0.00316814
0.00314604
0.00311844
0.00307894
0.00306769
0.00305817
0.00305235
0.00304091
0.003013
0.00294787
0.00294938
0.00295793
0.0029621
0.00294691
0.00283921
0.00284825
0.00286836
0.00288684
0.00288538
0.00274284
0.00275644
0.0027849
0.00281665
0.00282941
0.00265309
0.00267137
0.00270769
0.00275079
0.00277712
0.0025869
0.00261086
0.00265263
0.00270113
0.00273509
0.00261284
0.0026412
0.002679
0.00272017
0.00274657
0.00273659
0.00278912
0.00282981
0.00286579
0.00287479
0.00242605
0.002553
0.00266528
0.00273563
0.00273502
0.00176021
0.00171126
0.00164405
0.00156345
0.00147444
0.000849607
0.000777228
0.00070627
0.000639419
0.000580278
0.000885291
0.000847867
0.000811146
0.000781411
0.000762295
0.000863546
0.00079536
0.000720238
0.000825122
0.00103305
0.000542439
0.00173362
0.00234908
0.000695118
0.00225453
0.0031404
0.000790641
0.00249497
0.00350915
0.000863874
0.00264757
0.00366712
0.000934215
0.00278029
0.00374844
0.00101858
0.00288475
0.0037912
0.0011151
0.00298934
0.00380714
0.00125237
0.00309339
0.00379421
0.00114477
0.00126834
0.00205328
0.00353385
0.00378506
0.00245699
0.0026008
0.00319566
0.00378402
0.00367983
0.00365093
0.00371141
0.0038061
0.0037766
0.00350795
0.0041192
0.00400947
0.00385777
0.00363062
0.00335078
0.00395987
0.00374657
0.00350661
0.00325632
0.00388535
0.00367254
0.00345144
0.0032242
0.00385879
0.00365487
0.00344742
0.00323372
0.00386257
0.00366571
0.00346861
0.00326622
0.00387421
0.00368444
0.00349737
0.0033071
0.00388001
0.0036988
0.00352258
0.00334581
0.00387327
0.0037025
0.00353806
0.00337577
0.00385201
0.00369326
0.00354088
0.00339288
0.00324497
0.00381689
0.00367122
0.00353067
0.00339574
0.00326488
0.00376945
0.00363744
0.0035082
0.00338429
0.00326703
0.00371091
0.00359316
0.00347523
0.00336084
0.00325358
0.00364067
0.00353828
0.00343267
0.00332761
0.00322783
0.00355619
0.00347105
0.00337989
0.0032855
0.00319225
0.00345346
0.00338877
0.00331501
0.00323388
0.00314733
0.00333261
0.00328962
0.00323685
0.00317313
0.0030959
0.00319574
0.00317438
0.00314615
0.0031051
0.00304301
0.0030506
0.00304802
0.0030457
0.00303141
0.00299066
0.00290988
0.00292153
0.0029416
0.00295508
0.0029402
0.0027827
0.00280214
0.00284038
0.00287951
0.00289239
0.00266894
0.00269255
0.00274372
0.0028053
0.00284568
0.00256214
0.00259171
0.00265294
0.00273268
0.00279778
0.00249478
0.00252655
0.0025902
0.00267711
0.00275675
0.00251906