/*--------------------------------*- C++ -*----------------------------------*\
| =========                 |                                                 |
| \\      /  F ield         | OpenFOAM: The Open Source CFD Toolbox           |
|  \\    /   O peration     | Version:  2.3.1                                 |
|   \\  /    A nd           | Web:      www.OpenFOAM.org                      |
|    \\/     M anipulation  |                                                 |
\*---------------------------------------------------------------------------*/
FoamFile
{
    version     2.0;
    format      ascii;
    class       volScalarField;
    location    "600";
    object      epsilon;
}
// * * * * * * * * * * * * * * * * * * * * * * * * * * * * * * * * * * * * * //

dimensions      [0 2 -3 0 0 0 0];

internalField   nonuniform List<scalar> 
6852
(
0.0361456
0.0397041
0.0395015
0.0343197
0.0575606
0.0675223
0.0740546
0.073416
0.0462646
0.0583338
0.0698738
0.077002
0.0304171
0.0399843
0.0533623
0.0679098
0.0259622
0.0332385
0.0438697
0.0573317
0.033402
0.04121
0.0523304
0.0662574
0.0425996
0.051713
0.0645547
0.0803529
0.0540139
0.0647062
0.0797868
0.0980665
0.112433
0.0683206
0.0807653
0.0984721
0.119531
0.133377
0.0861143
0.100441
0.12103
0.14472
0.156469
0.108928
0.125283
0.148631
0.172722
0.180329
0.140908
0.158354
0.182678
0.201976
0.202567
0.181773
0.198489
0.219939
0.229205
0.220071
0.228551
0.241355
0.251831
0.248953
0.22954
0.273441
0.2755
0.272336
0.257158
0.229031
0.301963
0.292529
0.277216
0.252235
0.218622
0.308864
0.290349
0.266353
0.235544
0.200258
0.295818
0.271613
0.243072
0.210538
0.176927
0.268284
0.24175
0.212344
0.181346
0.151691
0.232897
0.20667
0.179019
0.1516
0.127012
0.195426
0.171189
0.146772
0.123839
0.10447
0.159841
0.13843
0.117816
0.099404
0.0846473
0.128402
0.109935
0.0930219
0.078864
0.0682633
0.101743
0.0862998
0.0729029
0.0623668
0.0548293
0.0799233
0.0673262
0.0569904
0.0492792
0.0438123
0.0625312
0.0524551
0.0445997
0.0389196
0.0347359
0.0489631
0.0409975
0.0350154
0.0306811
0.0272295
0.0385718
0.0322687
0.0275999
0.0240873
0.0210377
0.0307357
0.0256567
0.0218433
0.0188071
0.0160148
0.0249023
0.0206623
0.0173792
0.014641
0.0120929
0.0206233
0.0169298
0.0139925
0.0115065
0.00926061
0.0175967
0.0142645
0.0115967
0.00937607
0.00746323
0.0156448
0.0125554
0.0101061
0.00811322
0.00641557
0.0145209
0.0115446
0.00920296
0.00730313
0.00569579
0.0135391
0.010631
0.00835626
0.00651903
0.00500472
0.0120845
0.00929841
0.0071747
0.00553197
0.0042077
0.0106802
0.00809382
0.00613846
0.00465182
0.00350901
0.00947291
0.00713037
0.00535007
0.00400022
0.00298679
0.00847738
0.00639976
0.00481021
0.00359967
0.00270301
0.0079563
0.00599205
0.00451996
0.00343369
0.00265451
0.00500818
0.00360715
0.00261885
0.00195808
0.00155453
0.0436561
0.0518959
0.0588218
0.0607821
0.0547322
0.0143117
0.0174046
0.0206389
0.0226986
0.00646145
0.00773618
0.0107983
0.0147667
0.00676272
0.00671842
0.00668631
0.00755642
0.00530033
0.00561668
0.0057904
0.00617715
0.00613785
0.00634171
0.00650661
0.00680653
0.00748228
0.00750639
0.00760133
0.0079021
0.00892035
0.00882748
0.00886618
0.00921438
0.0105338
0.0103546
0.010337
0.0107616
0.0140585
0.0122986
0.0120365
0.0119762
0.0125373
0.0173795
0.0141059
0.0137913
0.0137693
0.015299
0.0214598
0.0157272
0.0155217
0.0157519
0.0196455
0.0263811
0.0174783
0.0174559
0.0184424
0.0248567
0.0315204
0.0196718
0.0198102
0.0237186
0.030618
0.0361713
0.0222946
0.0245417
0.0298676
0.0358257
0.0395676
0.0275324
0.0306485
0.0352771
0.0394744
0.0412044
0.0332547
0.0356271
0.0387832
0.041036
0.0409784
0.0371666
0.0383926
0.0399777
0.0405329
0.0391442
0.038632
0.0388095
0.0390781
0.0383736
0.0361598
0.0379445
0.0373229
0.0366378
0.0351254
0.0325236
0.0357405
0.034578
0.0332795
0.031334
0.0286634
0.0326728
0.031179
0.0295346
0.0274239
0.0248762
0.0292647
0.0275828
0.0257764
0.0236801
0.0213789
0.0258607
0.0240926
0.0222542
0.0202824
0.0182721
0.0226634
0.0208804
0.0190953
0.0173029
0.0155803
0.0197851
0.0180296
0.0163413
0.0147414
0.01328
0.0172357
0.0155492
0.0139921
0.0125886
0.0113629
0.0150143
0.0134259
0.0120158
0.0108003
0.00978632
0.0131009
0.0116295
0.0103713
0.00933284
0.00851122
0.0114665
0.0101244
0.00901925
0.00814875
0.00750333
0.0100818
0.00887829
0.00792716
0.00721732
0.00673067
0.00892145
0.00786535
0.00706892
0.00650993
0.00614798
0.00796439
0.00706359
0.0064164
0.00598207
0.00567872
0.00718503
0.00644574
0.00592633
0.00555474
0.00524253
0.00656069
0.00595122
0.00549948
0.00512852
0.00476038
0.00598835
0.00545304
0.00502122
0.00463362
0.00422384
0.0053193
0.00485882
0.00446088
0.0040713
0.0036379
0.00455716
0.00418767
0.00383708
0.00346182
0.00302501
0.00378219
0.00350013
0.00320572
0.00286395
0.00245357
0.00338887
0.00309121
0.00279798
0.00247401
0.00210295
0.00915419
0.00706814
0.00554036
0.0044452
0.00350532
0.0459024
0.0552638
0.0624246
0.0628621
0.0551976
0.00727211
0.00822615
0.0102483
0.0130269
0.0150381
0.00560462
0.0049764
0.00548028
0.00697833
0.00638549
0.00636988
0.00555564
0.00504323
0.00321547
0.00482972
0.00506373
0.00461634
0.00289998
0.00444528
0.00504653
0.00467755
0.00337141
0.00465144
0.00528231
0.004885
0.00401581
0.00518143
0.00571138
0.00517968
0.00477777
0.00597329
0.00627581
0.0055349
0.00567075
0.00695483
0.00685295
0.00588191
0.0056347
0.00691032
0.0080033
0.00732339
0.00617092
0.00634059
0.00846306
0.00852985
0.00747434
0.00637878
0.0072575
0.00901853
0.00853325
0.00741527
0.00688196
0.00843524
0.00900591
0.00831671
0.00735157
0.00773869
0.00978485
0.00884523
0.00813404
0.00767034
0.00887739
0.0111097
0.00876923
0.00808188
0.00844373
0.0100963
0.0121901
0.00880954
0.00857255
0.00941417
0.011135
0.0128637
0.00920848
0.00928788
0.0102831
0.0118033
0.013069
0.00973648
0.00991968
0.0108438
0.0120298
0.0128376
0.0101163
0.0102858
0.0110222
0.0118448
0.0122592
0.0102362
0.0103347
0.0108457
0.0113363
0.0114436
0.0100924
0.0100998
0.0103932
0.0106089
0.0104932
0.00973679
0.00965146
0.00975481
0.00975775
0.00949328
0.00923974
0.00906455
0.0090121
0.00886012
0.0085058
0.00865952
0.00840488
0.0082287
0.00797016
0.00756887
0.0080397
0.00771731
0.00744823
0.00712232
0.00670797
0.00741021
0.00703353
0.00670048
0.00633922
0.00593749
0.00679036
0.00637451
0.00600357
0.00563258
0.00526306
0.0061924
0.0057534
0.00536729
0.00500699
0.00468477
0.00562397
0.00517808
0.00479632
0.00446315
0.00419964
0.00508997
0.0046533
0.00429274
0.00400009
0.00380322
0.00459445
0.00418281
0.00385801
0.00361649
0.0034899
0.00414227
0.00377093
0.00349397
0.00331038
0.00325042
0.00374066
0.00342291
0.00320134
0.00307541
0.00307411
0.00339642
0.00313961
0.00297546
0.00290894
0.00295994
0.00311167
0.00292611
0.00282459
0.00280345
0.00287218
0.00292114
0.0027903
0.00272362
0.00271599
0.00276395
0.0027984
0.0027006
0.00264323
0.0026146
0.00259859
0.00277535
0.00268597
0.00260627
0.0025165
0.00239397
0.00310289
0.00294429
0.00277932
0.00257876
0.00232185
0.00907869
0.00739283
0.00609519
0.0051027
0.00422386
0.052608
0.0598914
0.0642038
0.0621505
0.0527776
0.00925921
0.0115219
0.0141824
0.0163004
0.0168789
0.00885801
0.00882054
0.00831234
0.00844313
0.00886294
0.00798353
0.00915802
0.00802723
0.00696122
0.00342564
0.00769389
0.00808037
0.00661677
0.00232968
0.0067239
0.00833405
0.00674706
0.00235049
0.00664482
0.00878569
0.0069553
0.00266043
0.00727309
0.00952612
0.00718247
0.00311224
0.00850393
0.0103507
0.00738679
0.00382099
0.0103603
0.0109343
0.00741833
0.00603153
0.012633
0.0110659
0.00717364
0.00522033
0.0120333
0.013344
0.0103601
0.00665548
0.00517833
0.013702
0.0124923
0.00918312
0.00617292
0.00531891
0.0129378
0.010944
0.00806932
0.00593677
0.00561023
0.0114179
0.00949427
0.00724015
0.00592051
0.0059837
0.00998841
0.00835025
0.00674941
0.00605398
0.00635187
0.00886422
0.00752006
0.00651133
0.00624716
0.00663743
0.00803634
0.00701147
0.00642494
0.00641423
0.00679065
0.00744972
0.00670855
0.00639343
0.00649569
0.00679445
0.00705644
0.00650629
0.00634431
0.00646454
0.00665853
0.00675868
0.00633077
0.00623726
0.00632096
0.00640876
0.00649294
0.00613932
0.00605941
0.00608207
0.00607712
0.00622556
0.00591285
0.00581556
0.00577223
0.00569502
0.00594258
0.0056482
0.00551939
0.00541659
0.00528957
0.00564102
0.005351
0.00518732
0.00503732
0.00488183
0.00532325
0.00503029
0.00483509
0.00465223
0.00448751
0.00499393
0.00469567
0.00447617
0.00427509
0.00411792
0.00465826
0.00435593
0.00412146
0.00391615
0.00378063
0.00432127
0.00401871
0.00377954
0.00358278
0.00348029
0.00398767
0.0036906
0.00345713
0.00328021
0.00321917
0.00366199
0.00337742
0.00315964
0.00301207
0.00299762
0.00334895
0.00308465
0.0028917
0.00278076
0.00281415
0.00305389
0.00281784
0.00265733
0.00258723
0.00266519
0.00278354
0.0025827
0.00245959
0.00243063
0.00254553
0.00254568
0.00238461
0.00230042
0.00230899
0.00244955
0.00234921
0.00222933
0.00218164
0.00221953
0.00237091
0.00220897
0.00212849
0.00211041
0.00216345
0.00230359
0.00216129
0.00210785
0.00210064
0.00214181
0.00223367
0.00229271
0.00224199
0.00221293
0.00219734
0.00218511
0.00288379
0.00275894
0.00263414
0.0024877
0.00230404
0.00846495
0.00700578
0.00588122
0.00502513
0.00428622
0.051262
0.0563978
0.0580717
0.0535026
0.0429479
0.0150027
0.0172914
0.0197049
0.020733
0.0194645
0.0150115
0.0155572
0.0141524
0.0137959
0.0131716
0.00672404
0.00992984
0.015991
0.0145931
0.0116212
0.00392217
0.0144024
0.0161822
0.0115379
0.00258967
0.0128656
0.0180615
0.0118482
0.00247294
0.0131644
0.0202177
0.0118667
0.00264297
0.014965
0.022729
0.011074
0.00296761
0.0181675
0.0246513
0.0103908
0.00367316
0.0233124
0.0247665
0.0100116
0.00763219
0.0300492
0.0229367
0.0098734
0.0269429
0.0303348
0.0196863
0.00991507
0.00769556
0.0312589
0.0267922
0.0169503
0.010022
0.00811244
0.0278356
0.0225864
0.0149985
0.0101486
0.00853735
0.0231559
0.0191746
0.0136736
0.0102569
0.00892159
0.0194548
0.016709
0.0126967
0.0103206
0.00923086
0.016864
0.0149631
0.0119926
0.0103298
0.00944616
0.0150532
0.0136523
0.0114927
0.0102822
0.00956175
0.0137234
0.0126153
0.0110897
0.0101786
0.00958204
0.0126577
0.0117406
0.0107311
0.0100221
0.00951771
0.0117719
0.0110545
0.0103898
0.0098178
0.0093822
0.0110115
0.0105324
0.0100512
0.00957194
0.00918895
0.0104208
0.0100899
0.00970668
0.00929089
0.0089499
0.00995587
0.00968474
0.00935209
0.00898069
0.00867496
0.00955082
0.00929418
0.0089859
0.00864689
0.00837202
0.00917073
0.00890627
0.0086085
0.00829456
0.0080474
0.00879705
0.00851551
0.00822172
0.00792849
0.00770632
0.00842084
0.00812053
0.00782864
0.00755354
0.0073534
0.00803928
0.00772297
0.00743343
0.00717469
0.00699286
0.00765384
0.00732658
0.00704102
0.00679682
0.00662829
0.00726871
0.00693637
0.00665642
0.0064241
0.00626213
0.00688978
0.00655763
0.00628389
0.00605925
0.00589519
0.00652281
0.0061947
0.00592595
0.00570281
0.00552605
0.00617231
0.00584998
0.00558277
0.00535281
0.0051514
0.00584039
0.005523
0.00525165
0.00500528
0.00476843
0.00552301
0.00520795
0.00492582
0.0046538
0.00437335
0.00520491
0.00489032
0.0045921
0.00428712
0.00395724
0.00485715
0.00454712
0.00423409
0.00389452
0.00351385
0.00448146
0.00418315
0.00386242
0.00349514
0.00307767
0.0042181
0.00388872
0.00354681
0.00316179
0.00273323
0.00896385
0.0070709
0.00564746
0.00460599
0.0037412
0.0269804
0.0288524
0.028298
0.0240621
0.0176101
0.0389696
0.0432187
0.0448325
0.0395527
0.0301918
0.0349672
0.0423006
0.051082
0.0472409
0.0361626
0.00651647
0.00967052
0.0410167
0.0521486
0.0438358
0.000943134
0.0038754
0.0319507
0.0582632
0.0506714
0.00296679
0.0278245
0.0663645
0.0572467
0.00291741
0.0306464
0.075693
0.0643675
0.00306087
0.0370973
0.0860126
0.0726106
0.00336027
0.047301
0.0976878
0.0821071
0.0040831
0.0651436
0.111089
0.0930874
0.00977931
0.0957428
0.126114
0.104863
0.0734987
0.13097
0.139865
0.115283
0.116299
0.149041
0.146191
0.121898
0.0967885
0.136815
0.153934
0.14666
0.124528
0.100407
0.138239
0.149434
0.142644
0.123685
0.10162
0.13124
0.140595
0.135968
0.120329
0.100923
0.121924
0.130603
0.128034
0.115495
0.0988827
0.112883
0.120966
0.119789
0.109965
0.0959741
0.104921
0.112271
0.111873
0.104225
0.0925201
0.0981384
0.104613
0.104517
0.0985128
0.0886995
0.0923472
0.0977241
0.0977167
0.0928932
0.0845812
0.0873291
0.0914289
0.0913615
0.0873346
0.0801657
0.0827394
0.0856297
0.0853098
0.0817637
0.0754227
0.0784176
0.080154
0.0794239
0.0761022
0.0703196
0.074248
0.0748414
0.0735892
0.0702886
0.0648422
0.0700903
0.0695652
0.067722
0.0642893
0.0590053
0.0658231
0.0642336
0.0617713
0.0581027
0.0528585
0.0613558
0.0587882
0.0557181
0.0517612
0.0464894
0.0566264
0.0531995
0.0495741
0.0453298
0.040022
0.0516004
0.0474656
0.0433795
0.0389045
0.033612
0.0462691
0.0416117
0.0372035
0.0326093
0.02744
0.0406609
0.0356984
0.0311481
0.026595
0.0217029
0.0348492
0.02983
0.0253511
0.0210326
0.0165944
0.0289852
0.0241666
0.0199827
0.016096
0.0122756
0.0232953
0.018911
0.0152187
0.0119241
0.0088334
0.0180578
0.0142769
0.0112021
0.00857946
0.00623713
0.0135643
0.0104481
0.00800741
0.00602506
0.00433922
0.0100678
0.00759516
0.00568329
0.0042041
0.00301678
0.00816302
0.0059739
0.00437419
0.00318582
0.00230481
0.00790255
0.00582944
0.00429412
0.00319119
0.00245647
0.00491382
0.00352212
0.00254311
0.00189434
0.00159506
0.00349861
0.00222666
0.000360808
0.00355907
0.000174989
0.00331976
0.00329888
0.00329843
0.00336382
0.003499
0.00235337
0.00123358
0.000670392
9.17005e-05
0.00122714
6.14185e-05
0.00120975
6.40998e-05
0.00121459
0.00121603
0.00122175
0.00122471
0.000676477
5.24069e-05
3.08888e-05
2.81744e-05
2.90332e-05
2.57861e-05
0.000136938
6.47059e-05
6.44507e-05
8.39507e-05
8.09827e-05
5.69528e-05
3.92143e-05
0.000106863
0.000135242
0.000137599
8.85283e-05
0.000180834
0.00019304
0.000102286
0.000215147
0.000243175
0.000106505
0.000248774
0.000299057
0.000104677
0.000279629
0.000357474
0.000101481
0.000310979
0.000421344
0.000101897
0.000354521
0.000501027
0.000117589
0.000428822
0.000595737
0.000165297
0.000539391
0.00071206
0.000143224
0.000376899
0.000668505
0.000837092
0.000326182
0.000487685
0.000799165
0.000965385
0.000453474
0.000622382
0.000932896
0.00110004
0.000593667
0.000780635
0.00105894
0.00124085
0.000743769
0.000943414
0.00119292
0.00139075
0.00155261
0.000907705
0.00110415
0.00133912
0.00155224
0.00174185
0.00107844
0.00127035
0.0014989
0.00172659
0.0019439
0.00125916
0.00144641
0.0016725
0.00191362
0.00215652
0.00145319
0.00163462
0.00185939
0.00211183
0.00237627
0.00166204
0.00183573
0.0020581
0.00231855
0.00259869
0.00188595
0.00204918
0.00226625
0.00253003
0.00281822
0.00212426
0.00227315
0.00248025
0.00274115
0.00302697
0.00237546
0.00250442
0.00269513
0.00294489
0.00321081
0.00263684
0.00273805
0.00290413
0.00313216
0.00336456
0.0029033
0.00296695
0.00309774
0.00329127
0.00347872
0.00316904
0.00318117
0.00326268
0.00340853
0.00354083
0.00342886
0.00336615
0.00338307
0.00346872
0.00353799
0.00367277
0.00350504
0.00344295
0.00345594
0.00346022
0.00387665
0.00359355
0.0034274
0.00335895
0.00330487
0.00402124
0.00362034
0.00333477
0.00318114
0.00307801
0.00409098
0.00357425
0.00319148
0.00293999
0.00278725
0.00408615
0.00347418
0.00301509
0.00269323
0.0024905
0.00403725
0.00336702
0.00286251
0.00250503
0.00225105
0.00400758
0.0033215
0.00280218
0.00242099
0.00213276
0.00406099
0.00338758
0.00286764
0.00246605
0.00214766
0.00419487
0.00353477
0.00300638
0.00257652
0.00221332
0.00428095
0.00362312
0.00306996
0.00260207
0.00219217
0.00405038
0.00342647
0.00286351
0.00236802
0.00193199
0.00333464
0.00276849
0.00224609
0.00178047
0.00137507
0.00157792
0.00126282
0.000970937
0.000714358
0.000500925
0.00025766
0.000151461
9.41728e-05
6.74836e-05
5.06758e-05
0.000233207
0.000170466
0.000122012
8.46437e-05
6.00683e-05
0.000273759
0.000167881
9.44838e-05
6.70987e-05
5.80775e-05
0.000121769
7.53407e-05
6.94972e-05
0.000156138
0.000106648
0.000100944
0.000188348
0.000149595
0.000145061
0.000210656
0.000194557
0.000192283
0.000228004
0.000241439
0.000241426
0.000262304
0.000291167
0.000286922
0.000335658
0.000343984
0.000331295
0.000494825
0.00039855
0.000370625
0.000345078
0.000401431
0.000417837
0.000395883
0.000316513
0.00039688
0.000429259
0.000412366
0.000345331
0.000406402
0.000436045
0.000422714
0.0003674
0.000414816
0.000438984
0.000428774
0.000381291
0.000420858
0.000440383
0.000432805
0.000392063
0.00042666
0.00044271
0.00043699
0.000416497
0.000404713
0.000434647
0.000448103
0.000443088
0.000425693
0.000422352
0.000447839
0.000458254
0.000452487
0.000437399
0.000447423
0.000468237
0.000474464
0.000466167
0.000452047
0.000481484
0.000497183
0.000497687
0.000484806
0.000469747
0.000525136
0.000535338
0.000528454
0.000508777
0.000490494
0.000577879
0.000582338
0.000566784
0.000538064
0.000515037
0.000638036
0.000636812
0.000611999
0.000572292
0.000547728
0.000702808
0.000696488
0.000662541
0.000610295
0.000583495
0.000768453
0.000758385
0.000715365
0.000650695
0.000619322
0.000831679
0.00081916
0.000767588
0.000691459
0.00065223
0.000890036
0.000874149
0.000817906
0.000729914
0.000678646
0.000942027
0.000921386
0.000864332
0.000764144
0.000695608
0.000987013
0.000960847
0.000902247
0.000797105
0.000702233
0.00102509
0.000993774
0.00093291
0.000830651
0.000699081
0.00105734
0.00102274
0.00096175
0.000863363
0.000715233
0.00108628
0.00105233
0.000996435
0.000904372
0.000758532
0.00111587
0.00108898
0.00104572
0.000966416
0.000829843
0.00114916
0.00113621
0.00111241
0.00105262
0.000928389
0.00118168
0.00118478
0.00118153
0.00114325
0.00103472
0.00119773
0.00120906
0.00121756
0.0011938
0.00109966
0.00118592
0.00118564
0.00118672
0.00116126
0.00107268
0.00122593
0.00115659
0.00110091
0.00105007
0.000956375
0.00132738
0.00121076
0.00110139
0.000994178
0.000871099
0.00280645
0.00238293
0.00197672
0.00159652
0.00124938
0.00053166
0.000344947
0.000215816
0.000135206
8.58405e-05
0.000277727
0.000217192
0.000163759
0.000119391
8.45417e-05
0.000567844
0.000383071
0.000178782
9.76796e-05
6.35156e-05
0.000110039
7.32025e-05
6.11581e-05
0.000175945
0.000120343
0.000105777
0.000268754
0.000180873
0.000160021
0.000350606
0.000240637
0.000212094
0.000429453
0.000301267
0.000261009
0.000541529
0.000364957
0.000308979
0.000683967
0.000431805
0.00035382
0.000952784
0.000492022
0.000389398
0.00064571
0.000640576
0.000484017
0.000404228
0.000489117
0.00053617
0.000469352
0.000409047
0.000456555
0.000487834
0.000454239
0.000407755
0.000438585
0.000459207
0.000440191
0.000402976
0.000424954
0.000440591
0.000428714
0.000397167
0.000416788
0.000430386
0.000421668
0.000392609
0.000417052
0.00042929
0.000420795
0.000391203
0.000343695
0.00042828
0.000438587
0.00042772
0.000394559
0.000342838
0.000452022
0.000459449
0.000443774
0.000404039
0.000345425
0.000488752
0.000492542
0.000469902
0.000420764
0.000352297
0.000537601
0.000537592
0.000506374
0.000445457
0.000363921
0.000596202
0.00059257
0.000552915
0.000477961
0.000380848
0.000660868
0.000654406
0.000608186
0.000517807
0.000403568
0.000727178
0.000719288
0.000669478
0.000564032
0.000432113
0.000790798
0.000782761
0.000730399
0.000617763
0.000465801
0.000848254
0.000841417
0.000788987
0.000676379
0.000504067
0.00089777
0.000893799
0.000843872
0.000734158
0.000551886
0.000939548
0.000940389
0.000895606
0.000791437
0.000612308
0.000975813
0.000983754
0.000947493
0.000852606
0.000684003
0.0010104
0.00102832
0.00100463
0.000922896
0.00076514
0.00104803
0.00107962
0.0010733
0.00101003
0.0008664
0.00109288
0.00114244
0.00115914
0.00112126
0.000999034
0.00114523
0.00121647
0.00126118
0.00125537
0.00116366
0.00119622
0.00128969
0.0013636
0.00139299
0.00133898
0.00122554
0.00133635
0.00143428
0.00149489
0.00147852
0.0012107
0.00132871
0.00143907
0.001518
0.00152683
0.0011473
0.00125718
0.00136225
0.00143747
0.00144454
0.00107737
0.00113748
0.00119748
0.00123372
0.00120784
0.00116844
0.00115188
0.0011301
0.00108952
0.00101079
0.00348782
0.00306023
0.00262648
0.00219606
0.00177956
0.000787403
0.000549624
0.000369324
0.000239821
0.000151566
0.00031663
0.000254382
0.000197226
0.000148636
0.000109232
0.000851001
0.000621589
0.000292722
0.000156203
9.41438e-05
0.000120752
8.86846e-05
7.40612e-05
0.000230435
0.000155581
0.000137988
0.000396028
0.000227447
0.000197325
0.000540686
0.000296624
0.000249906
0.00067923
0.000367504
0.000301875
0.000862343
0.000445407
0.000353415
0.00109391
0.000525732
0.00040112
0.00150375
0.000593786
0.000438414
0.00110023
0.000895961
0.000573646
0.000452891
0.000693817
0.000679329
0.000542454
0.00045663
0.000581645
0.00058202
0.000515176
0.000454024
0.000529337
0.000531441
0.000494509
0.000449056
0.00050112
0.000504466
0.000481721
0.00044512
0.000490087
0.000494681
0.000478443
0.000445179
0.000495746
0.000500732
0.000486096
0.000451363
0.000518812
0.000522825
0.000506038
0.000465713
0.00039922
0.000559199
0.000560951
0.000539225
0.000489908
0.000410304
0.000615589
0.000614326
0.000585955
0.000525382
0.000428293
0.000685019
0.000680801
0.000645362
0.000572797
0.000454435
0.000762932
0.000756785
0.000715118
0.000630423
0.000491294
0.0008438
0.000837655
0.000791877
0.00069715
0.000540138
0.000921997
0.000918343
0.000871519
0.000770799
0.000601605
0.000992724
0.000994104
0.000950063
0.000847929
0.000670988
0.00105309
0.00106196
0.00102483
0.000926258
0.000746547
0.00110273
0.00112171
0.00109572
0.00100646
0.000830526
0.0011436
0.00117554
0.00116504
0.00109159
0.0009269
0.0011795
0.00122751
0.00123727
0.00118652
0.00104153
0.00121539
0.0012829
0.00131805
0.00129708
0.00118156
0.00125582
0.0013461
0.0014115
0.00142746
0.00135194
0.00130238
0.00141757
0.00151679
0.0015759
0.001551
0.00135011
0.00148966
0.00162296
0.00172791
0.00176162
0.00138583
0.00154545
0.00170818
0.00185537
0.00194803
0.00139237
0.00156487
0.00174796
0.00192652
0.00206678
0.0013603
0.00153872
0.00173154
0.00192459
0.00208756
0.00130076
0.00147949
0.00167102
0.00185611
0.00200122
0.00121385
0.00135199
0.00150034
0.00163126
0.00170319
0.00128934
0.00132401
0.00135142
0.00135469
0.00131185
0.00453225
0.00405176
0.0035359
0.00300329
0.00247526
0.000982456
0.000720356
0.000512237
0.000351222
0.000232732
0.000349346
0.000285812
0.000226137
0.000174366
0.000131798
0.00106631
0.000820202
0.000392111
0.000212473
0.000128908
0.000152232
0.000125173
0.000112129
0.000317081
0.000206689
0.000187088
0.000548332
0.00028036
0.000245403
0.000745436
0.000354371
0.000298363
0.000936151
0.000435255
0.000353413
0.00119836
0.000526279
0.000409379
0.0015323
0.000620847
0.000462668
0.00210265
0.00071066
0.000507752
0.000806894
0.00167838
0.00115343
0.000678982
0.000527654
0.000908111
0.000821641
0.000634694
0.000532005
0.000707358
0.000683292
0.000599477
0.000529961
0.000628026
0.000619951
0.000576953
0.000527841
0.000594175
0.000593087
0.000568081
0.00052976
0.000589172
0.00059193
0.000574399
0.000539445
0.000608739
0.000612991
0.000596843
0.000559605
0.000651259
0.000655023
0.000636309
0.000592499
0.000714204
0.000716358
0.000692927
0.000639784
0.000553926
0.000793754
0.000794398
0.00076586
0.000702225
0.0005984
0.000884452
0.000885034
0.00085274
0.000779249
0.000656537
0.000979555
0.000982728
0.000949858
0.000869404
0.000729193
0.00107237
0.00108166
0.00105262
0.000970203
0.000816443
0.00115707
0.00117619
0.00115595
0.00107803
0.000917333
0.00122943
0.00126164
0.00125509
0.00118856
0.00102985
0.0012881
0.00133624
0.00134801
0.00129966
0.0011531
0.00133435
0.00140107
0.00143555
0.00141227
0.00128839
0.00137086
0.0014586
0.00151998
0.0015287
0.0014382
0.00140099
0.0015118
0.001604
0.00165145
0.00160545
0.001428
0.00156343
0.00168983
0.00178246
0.00179285
0.00145341
0.00161372
0.00177613
0.00191873
0.00199552
0.00147554
0.00165877
0.00185592
0.0020494
0.0021979
0.00148935
0.00169113
0.00191802
0.00215792
0.00237669
0.00148947
0.00170399
0.0019527
0.00222933
0.00250859
0.00147311
0.00169561
0.00195794
0.00225805
0.00257913
0.00144777
0.0016784
0.00194912
0.00225796
0.00259255
0.00144123
0.00168657
0.00196558
0.00226818
0.00257547
0.00141624
0.00164391
0.00190596
0.00216732
0.00238261
0.00150592
0.0015905
0.00167177
0.00172988
0.00173781
0.00600603
0.00543916
0.00479095
0.00409902
0.00340496
0.00110829
0.000836814
0.000616365
0.00044048
0.000306513
0.000372124
0.000308144
0.000246953
0.000193271
0.000149214
0.00119865
0.000946686
0.00045923
0.000257039
0.000162068
0.000181666
0.000186448
0.000177
0.000423809
0.000265477
0.000247893
0.000701135
0.000336034
0.000300844
0.000935338
0.000414552
0.00035435
0.00117942
0.0005055
0.000414177
0.00152014
0.000610822
0.000477464
0.00196103
0.000726785
0.000541858
0.00269644
0.00084803
0.000601003
0.00136199
0.00234998
0.00141075
0.000809833
0.000628585
0.000969641
0.00112361
0.000972077
0.000753509
0.000636328
0.000837401
0.000800925
0.000712313
0.000638429
0.000741044
0.000732081
0.000691718
0.000643751
0.000709795
0.000712011
0.000692115
0.000657216
0.000717992
0.000726163
0.000714497
0.000683362
0.000757084
0.000768041
0.000758342
0.000725134
0.000822289
0.000834155
0.000823337
0.000784734
0.00090792
0.000920501
0.000908095
0.00086318
0.0010075
0.00102236
0.00101016
0.000960567
0.000860335
0.00111351
0.00113383
0.00112534
0.00107448
0.000962838
0.00121782
0.0012476
0.00124815
0.0012019
0.00108426
0.00131385
0.00135759
0.00137299
0.00133912
0.0012237
0.00139677
0.00145855
0.00149433
0.00148076
0.00137811
0.00146381
0.00154652
0.00160701
0.00162044
0.00154182
0.00151509
0.00162084
0.00170965
0.00175622
0.00171251
0.00155237
0.00168269
0.00180296
0.00188862
0.00189086
0.00157719
0.00173282
0.00188703
0.00201714
0.00207554
0.00159065
0.00177122
0.00196078
0.00213941
0.00226237
0.0015935
0.00179742
0.00202226
0.00225198
0.00244635
0.00158556
0.00180953
0.0020672
0.00234771
0.00261707
0.00156685
0.00180591
0.00209108
0.00241802
0.00276133
0.00153949
0.00178802
0.00209325
0.00245801
0.00286773
0.00150976
0.00176351
0.00208123
0.00247244
0.00293413
0.00148831
0.0017479
0.0020739
0.00247948
0.00297212
0.00149756
0.00177133
0.00210671
0.0025162
0.00301229
0.00157653
0.00188143
0.00223703
0.00264625
0.00311276
0.00167735
0.00201476
0.00241234
0.00282604
0.00321968
0.00180225
0.001951
0.00210626
0.00224451
0.00233134
0.00800238
0.00730928
0.00646535
0.00554325
0.00461663
0.00117445
0.000898463
0.000672849
0.000493352
0.000357351
0.000384565
0.000319972
0.000257478
0.000202939
0.000159171
0.00125656
0.000996801
0.000489892
0.000286625
0.000192634
0.000231595
0.000256074
0.000249992
0.000539679
0.000325672
0.000311336
0.00083822
0.000393625
0.000360341
0.00110664
0.000478736
0.000417395
0.00139851
0.000581626
0.000485549
0.00181116
0.000705498
0.00056087
0.00235419
0.000850525
0.000640619
0.00326867
0.00101331
0.000720418
0.00206774
0.00310844
0.00167854
0.000974556
0.000761021
0.00122498
0.00134503
0.00114275
0.000905042
0.000774317
0.000947416
0.000980658
0.000943876
0.000858573
0.000783889
0.000876098
0.000874637
0.000843614
0.0008019
0.000853965
0.000866912
0.000858897
0.000833615
0.000880238
0.00090141
0.000903225
0.00088358
0.000940515
0.000966483
0.000972775
0.000954284
0.00102609
0.00105573
0.00106505
0.0010464
0.0011284
0.00116279
0.00117663
0.00115949
0.00123917
0.00128118
0.00130315
0.00129168
0.00135016
0.00140429
0.00143917
0.00143861
0.00137789
0.0014533
0.00152356
0.00157767
0.00159557
0.00154778
0.00154342
0.00163414
0.00171284
0.0017581
0.00173318
0.00161723
0.00173181
0.00183967
0.00191932
0.00192882
0.00167327
0.00181361
0.0019534
0.0020717
0.00212535
0.00171194
0.00187886
0.00205259
0.00221376
0.00231982
0.00173382
0.00192716
0.00213599
0.0023438
0.0025104
0.00173841
0.00195685
0.00220088
0.00245779
0.00269093
0.00172504
0.00196567
0.00224376
0.00255092
0.00285592
0.00169385
0.00195241
0.00226171
0.00261867
0.00299974
0.00164625
0.00191696
0.00225217
0.00265558
0.00311289
0.00158716
0.00186364
0.00221701
0.00265931
0.00318786
0.00152608
0.00180311
0.00216668
0.00263716
0.00322611
0.00147921
0.00175579
0.00212352
0.00261037
0.00324213
0.00147119
0.00175445
0.00212699
0.00261863
0.00326878
0.00153891
0.00184529
0.00222916
0.00271952
0.00336091
0.00172198
0.00207629
0.00249279
0.00299031
0.00360183
0.00199538
0.00243616
0.00294135
0.00349609
0.00408508
0.00223245
0.00249956
0.00281089
0.0031501
0.0034845
0.0105865
0.00972764
0.00862631
0.00741905
0.00622266
0.00119915
0.000917539
0.000688175
0.000510862
0.000382139
0.00038861
0.000322288
0.000258049
0.000203435
0.000161744
0.00125914
0.00098327
0.000486897
0.000305314
0.000226468
0.000312332
0.000327518
0.00032336
0.000655625
0.000384238
0.000374488
0.000963492
0.000455029
0.000424533
0.00125684
0.000550762
0.000489571
0.00158979
0.000670247
0.000570131
0.00206086
0.000816108
0.000661048
0.0027025
0.000993433
0.000761237
0.00382304
0.00121408
0.000870901
0.00292057
0.00396493
0.00197257
0.00118158
0.000930529
0.00149609
0.0015829
0.00134465
0.00109458
0.000950424
0.0011141
0.00114529
0.00111839
0.00104231
0.000970915
0.00100399
0.00103834
0.00105175
0.00103653
0.0010071
0.00102926
0.00106025
0.0010713
0.00106297
0.00107444
0.00111655
0.00114025
0.00114095
0.00115192
0.0012014
0.00123402
0.00124266
0.00124953
0.00130638
0.00134804
0.0013649
0.00135768
0.00142389
0.00147729
0.00150588
0.00146797
0.0015468
0.00161617
0.00166205
0.00157279
0.00166814
0.0017582
0.00182718
0.00166628
0.0017823
0.00189804
0.00199678
0.00204728
0.00174438
0.00188473
0.00203061
0.0021653
0.00225556
0.00180458
0.0019717
0.00215116
0.00232709
0.00246608
0.00184571
0.00204049
0.00225553
0.00247643
0.00267011
0.00186706
0.00208895
0.00234051
0.00260962
0.00286473
0.00186762
0.00211469
0.00240242
0.00272233
0.00304602
0.00184559
0.00211496
0.00243689
0.00280886
0.00320777
0.00180016
0.00208716
0.00243957
0.00286258
0.0033408
0.00173243
0.00203041
0.00240795
0.00287857
0.00343786
0.0016467
0.0019477
0.00234317
0.00285496
0.00349361
0.00155263
0.00184958
0.00225314
0.00279557
0.0035048
0.00146567
0.00175439
0.00215831
0.00271767
0.00348032
0.00141319
0.00169811
0.00209705
0.00265897
0.00344977
0.00143851
0.00173138
0.00212822
0.00268216
0.00347139
0.00158733
0.001909
0.00231867
0.00286638
0.00363086
0.00188833
0.00227493
0.00273266
0.00329875
0.00403618
0.00233593
0.00284043
0.00341116
0.00405788
0.00480674
0.00312799
0.00356966
0.00409197
0.00473315
0.00541691
0.0132752
0.0122808
0.0109852
0.00953389
0.00805593