/*--------------------------------*- C++ -*----------------------------------*\
| =========                 |                                                 |
| \\      /  F ield         | OpenFOAM: The Open Source CFD Toolbox           |
|  \\    /   O peration     | Version:  2.3.1                                 |
|   \\  /    A nd           | Web:      www.OpenFOAM.org                      |
|    \\/     M anipulation  |                                                 |
\*---------------------------------------------------------------------------*/
FoamFile
{
    version     2.0;
    format      ascii;
    class       volScalarField;
    location    "600";
    object      k;
}
// * * * * * * * * * * * * * * * * * * * * * * * * * * * * * * * * * * * * * //

dimensions      [0 2 -2 0 0 0 0];

internalField   nonuniform List<scalar> 
6852
(
0.0433283
0.0461273
0.0459703
0.0418565
0.0372219
0.0414012
0.0440301
0.0437766
0.0321771
0.0375545
0.0423569
0.0451907
0.0243291
0.029195
0.0353892
0.0415594
0.0218915
0.0258113
0.0310569
0.0371231
0.0258958
0.0297886
0.0349315
0.0408825
0.0304545
0.0346562
0.0401791
0.0464924
0.0356767
0.0402419
0.0462738
0.053096
0.0581625
0.0417269
0.0466514
0.0532423
0.0605855
0.0651782
0.0486891
0.0539496
0.0610911
0.068823
0.0724991
0.0569475
0.0625139
0.0700575
0.0774367
0.079694
0.0676092
0.0730805
0.0803844
0.0859503
0.0861179
0.0801186
0.0849584
0.0909738
0.0935112
0.09101
0.0933333
0.0967874
0.0995683
0.098808
0.0936025
0.105186
0.105713
0.104902
0.100967
0.0934639
0.112379
0.110026
0.106152
0.0996746
0.0906102
0.114084
0.109478
0.10336
0.0952277
0.0854624
0.110849
0.104716
0.097246
0.0883625
0.0786883
0.103859
0.0968929
0.0888672
0.0799932
0.0710159
0.0945127
0.0872771
0.0793075
0.0709874
0.0630878
0.0840819
0.0769778
0.0694721
0.0620327
0.055383
0.0735372
0.0668143
0.0600046
0.0535777
0.0481346
0.0635472
0.0572978
0.0512592
0.0459163
0.0417035
0.0544149
0.048759
0.0435724
0.0392661
0.0360349
0.0463266
0.041321
0.0369757
0.0335601
0.0310298
0.039335
0.034987
0.0314005
0.0286744
0.0265807
0.0334165
0.0296861
0.0267231
0.0244697
0.0225982
0.0285033
0.0253067
0.0228027
0.0208244
0.0190274
0.0244987
0.0217194
0.0195101
0.0176575
0.0158633
0.0212916
0.0188004
0.016752
0.0149427
0.0131543
0.0187767
0.016462
0.0144981
0.0127255
0.0110105
0.0168915
0.0146854
0.012792
0.0111018
0.00953525
0.0156181
0.0134876
0.0116708
0.0100811
0.00862061
0.0148609
0.0127536
0.0109648
0.0093984
0.00796314
0.0141832
0.0120715
0.0102815
0.00871305
0.00730525
0.0131482
0.0110405
0.00928789
0.00780971
0.00650745
0.0121088
0.0100651
0.00837056
0.00695766
0.00576551
0.0111782
0.0092496
0.00763756
0.00629174
0.00517827
0.0103806
0.00860644
0.00711471
0.00586439
0.00484485
0.00995074
0.00823692
0.00682556
0.0056827
0.00478671
0.0116017
0.00932203
0.00753024
0.00620327
0.00531863
0.030956
0.0347379
0.0377636
0.038598
0.0359923
0.015385
0.0170595
0.0189178
0.0203329
0.0108458
0.0113376
0.0127786
0.0148611
0.011077
0.0108602
0.0106205
0.010939
0.0105914
0.0102501
0.0100369
0.010092
0.0137844
0.0125189
0.0116746
0.0112767
0.0170866
0.0150831
0.0136702
0.0128907
0.019831
0.0173478
0.0155411
0.014506
0.0221398
0.019323
0.0172466
0.0160597
0.0165326
0.0238998
0.0208897
0.0186915
0.0174855
0.0184143
0.0247216
0.0218542
0.0197959
0.0190037
0.0203804
0.0245896
0.0222673
0.0206268
0.0208362
0.0224864
0.0243472
0.0225559
0.0215092
0.022748
0.0245582
0.0243655
0.0229837
0.0231745
0.0247689
0.0264253
0.0246545
0.0242034
0.0250956
0.0266217
0.0278677
0.0258415
0.025937
0.0268302
0.0280095
0.02871
0.0273123
0.02739
0.0280325
0.0287355
0.028877
0.0283437
0.0282374
0.0285312
0.0287466
0.0284015
0.0286989
0.0283776
0.0283214
0.0281114
0.0273946
0.0283937
0.0278727
0.0275133
0.0269706
0.0260045
0.0275569
0.0268685
0.0262682
0.0254881
0.0243806
0.0263527
0.0255306
0.0247502
0.0238148
0.0226461
0.0249375
0.0240073
0.0230961
0.0220731
0.0209118
0.0234323
0.0224163
0.0214184
0.020362
0.0192514
0.0219235
0.0208421
0.0197948
0.0187444
0.0177088
0.0204778
0.0193446
0.0182726
0.0172512
0.0163052
0.0191134
0.0179516
0.0168835
0.0159151
0.015076
0.0178496
0.0166824
0.015643
0.0147481
0.0140338
0.0166973
0.0155481
0.0145613
0.0137614
0.0131901
0.0156641
0.0145582
0.0136502
0.0129699
0.0125552
0.01476
0.0137277
0.012929
0.0123914
0.0121299
0.0140048
0.0130817
0.0124217
0.0120322
0.0118641
0.0134305
0.012649
0.0121312
0.0118312
0.0116626
0.013052
0.0124031
0.0119703
0.0116853
0.0114289
0.0127945
0.0122294
0.0118167
0.0114644
0.0110537
0.0125096
0.0119667
0.0115113
0.0110669
0.0105234
0.0119752
0.0114662
0.010995
0.0104813
0.00982688
0.0111743
0.0107367
0.010275
0.00971299
0.00896627
0.010187
0.0098281
0.0093935
0.0088097
0.00801109
0.00918557
0.00881762
0.00838065
0.00780261
0.00703316
0.010926
0.0091957
0.0078176
0.00675007
0.00576147
0.0320089
0.036225
0.0392903
0.0394737
0.0361961
0.0110829
0.0116003
0.0127385
0.0143918
0.0157954
0.00993578
0.00931123
0.00940839
0.0102442
0.00974925
0.00984775
0.00923124
0.00877416
0.00676342
0.00800977
0.00837373
0.00819549
0.00827173
0.00847977
0.00863757
0.00837289
0.0109051
0.00994702
0.00952857
0.00895558
0.0132264
0.0115335
0.0106162
0.00970751
0.0150863
0.0129753
0.0116672
0.0104738
0.0163361
0.0140815
0.0124877
0.0111208
0.0105904
0.0165161
0.0146047
0.0129329
0.0115689
0.0112533
0.0163952
0.0146118
0.0130468
0.0118647
0.0118806
0.0160889
0.0144117
0.0130264
0.0122422
0.0125166
0.0158299
0.0142358
0.0130306
0.0126911
0.0131491
0.0157116
0.0141737
0.0132388
0.0131897
0.0137324
0.0157322
0.0142132
0.0135784
0.0136715
0.0142027
0.0158121
0.0144665
0.0139339
0.0140569
0.0145031
0.0159638
0.0147044
0.014199
0.0142836
0.0146019
0.0160413
0.0148182
0.0143099
0.0143216
0.0144969
0.0159395
0.0147638
0.0142451
0.0141722
0.0142093
0.015658
0.0145425
0.0140148
0.0138594
0.0137748
0.0152277
0.01418
0.0136472
0.0134182
0.0132328
0.0146903
0.0137112
0.0131765
0.0128858
0.0126228
0.0140969
0.0131718
0.0126369
0.0122974
0.0119791
0.0134718
0.012603
0.0120631
0.0116841
0.0113289
0.0128391
0.0120205
0.0114765
0.0110689
0.0106967
0.0122147
0.0114393
0.0108943
0.0104707
0.0101024
0.0116087
0.010871
0.0103302
0.00990522
0.00956285
0.0110274
0.0103244
0.00979585
0.00938602
0.00909167
0.0104752
0.00980768
0.00930252
0.00892607
0.00870043
0.00995643
0.00932989
0.00886242
0.0085386
0.00839873
0.00947818
0.00890326
0.00849031
0.00823713
0.00819285
0.009053
0.00854454
0.00820265
0.00803255
0.00808234
0.00869953
0.00827216
0.00801253
0.00792864
0.00806343
0.00843432
0.00809783
0.00792601
0.00793345
0.00814413
0.00827104
0.00804164
0.00796666
0.0080426
0.00827101
0.00827253
0.00812368
0.00809682
0.00818142
0.0083543
0.00840433
0.00829689
0.00826681
0.00828669
0.00830865
0.00872373
0.00861091
0.00850918
0.00837012
0.00812952
0.00918993
0.00899163
0.00874526
0.00838285
0.00784321
0.0108658
0.0094752
0.00833117
0.00740028
0.00652411
0.0350549
0.03822
0.0400333
0.0391752
0.0351302
0.0119488
0.0131979
0.0147456
0.0161386
0.0168196
0.012783
0.0126246
0.0118398
0.0115944
0.0117911
0.0108867
0.0119649
0.0112194
0.0104348
0.00612214
0.00989576
0.0107041
0.009982
0.0056977
0.00904479
0.0105814
0.00992811
0.00685784
0.00936738
0.0109183
0.0100716
0.00809372
0.0102519
0.0116059
0.0103476
0.00906989
0.0113846
0.0123721
0.0106541
0.00978571
0.0126732
0.0129421
0.0108384
0.0107281
0.0139894
0.013151
0.0108152
0.00970081
0.0139666
0.0144964
0.0128482
0.0106232
0.00981713
0.0150003
0.0141393
0.0122574
0.0104888
0.00999705
0.0147671
0.013381
0.0117244
0.0105156
0.0102055
0.0140935
0.0126932
0.0113861
0.0106341
0.0104042
0.0134722
0.0122031
0.0112665
0.0107705
0.0105593
0.0130314
0.0119044
0.0112534
0.0108717
0.010648
0.0127566
0.0117823
0.0112586
0.010906
0.0106579
0.0125989
0.01172
0.0112258
0.0108606
0.010586
0.0124966
0.0116382
0.0111272
0.0107353
0.0104366
0.0123654
0.0114978
0.0109562
0.0105378
0.0102201
0.0121664
0.0112876
0.0107186
0.01028
0.00994971
0.0118918
0.011012
0.010426
0.009975
0.00963996
0.0115509
0.0106827
0.0100912
0.00963626
0.00930535
0.0111586
0.0103144
0.00972728
0.00927631
0.00895923
0.0107306
0.0099202
0.0093458
0.00890642
0.0086139
0.0102811
0.00951139
0.00895654
0.00853674
0.0082807
0.00982191
0.00909713
0.00856811
0.00817682
0.00797006
0.0093622
0.0086852
0.00818855
0.00783585
0.00769144
0.00890941
0.00828277
0.00782594
0.00752305
0.00745325
0.00847003
0.00789725
0.00748905
0.00724778
0.00726259
0.008051
0.00753738
0.00718786
0.00701943
0.00712451
0.00766109
0.00721409
0.0069336
0.00684649
0.00704084
0.00731294
0.00694088
0.00673785
0.00673546
0.00701025
0.00702354
0.00673355
0.00661245
0.00669158
0.00703017
0.00681654
0.00661252
0.00657137
0.00671941
0.0070962
0.00673516
0.00661674
0.00664437
0.00683405
0.0072038
0.00688424
0.00682751
0.00688262
0.00705091
0.00732439
0.00747081
0.00742239
0.00742681
0.00746111
0.00749043
0.00860875
0.00846482
0.00830111
0.00806616
0.0077113
0.0103705
0.00914154
0.00813504
0.00732509
0.00658816
0.0344544
0.0367189
0.0374419
0.0354512
0.0306203
0.0156656
0.0170658
0.0185806
0.0194331
0.0190216
0.016845
0.0170565
0.0159853
0.0157207
0.0154169
0.00888605
0.0122733
0.016394
0.0158232
0.0143377
0.00637618
0.0145716
0.0162819
0.0140467
0.00523395
0.0133061
0.0170695
0.0140919
0.00550895
0.0134835
0.0182008
0.0140831
0.00597048
0.0146536
0.0196489
0.0136569
0.00639342
0.0165814
0.0207964
0.0132107
0.00699216
0.0194516
0.0209174
0.0128549
0.00991414
0.0231109
0.01984
0.0126027
0.0212173
0.0234526
0.0179875
0.0124714
0.0109475
0.0238948
0.0216893
0.0163983
0.0124232
0.0111815
0.0224955
0.0195049
0.0152556
0.0124461
0.0114544
0.0202217
0.0176738
0.0144922
0.0125121
0.0117249
0.0182674
0.0163229
0.0139684
0.0125884
0.0119619
0.0168144
0.0153667
0.0136247
0.0126509
0.0121465
0.0157674
0.0146714
0.0134038
0.0126843
0.0122704
0.0150023
0.0141476
0.0132382
0.01268
0.0123334
0.0144144
0.0137254
0.0130903
0.0126354
0.0123402
0.0139483
0.0133995
0.0129398
0.0125519
0.0122979
0.0135624
0.0131473
0.0127768
0.0124335
0.0122147
0.013263
0.0129236
0.0125967
0.0122852
0.0120986
0.01302
0.0127057
0.0123987
0.0121125
0.0119574
0.0127964
0.0124822
0.0121842
0.0119211
0.011798
0.0125728
0.0122487
0.0119565
0.0117168
0.0116271
0.0123403
0.0120051
0.0117199
0.0115055
0.0114508
0.0120965
0.0117543
0.0114801
0.0112939
0.0112749
0.0118442
0.0115019
0.0112441
0.0110888
0.0111047
0.01159
0.011256
0.0110198
0.0108969
0.0109439
0.0113438
0.0110262
0.0108158
0.0107242
0.0107937
0.0111181
0.0108231
0.0106396
0.0105737
0.0106509
0.0109256
0.0106561
0.010496
0.0104438
0.0105067
0.0107779
0.0105316
0.0103847
0.010327
0.0103465
0.0106821
0.01045
0.010299
0.0102099
0.010155
0.0106339
0.0104009
0.0102229
0.0100736
0.00991536
0.0106089
0.0103574
0.0101285
0.0098902
0.00960177
0.0105561
0.0102756
0.00997962
0.00962959
0.0091858
0.0104437
0.0101355
0.00976836
0.00929708
0.00869494
0.0101145
0.00974736
0.00931028
0.00874544
0.00803071
0.010774
0.00919809
0.00791802
0.00691188
0.00601712
0.0356534
0.037284
0.0368049
0.0330337
0.0268273
0.0286989
0.0307489
0.0315096
0.0289845
0.0242089
0.0266986
0.0303119
0.0343737
0.0326282
0.0273037
0.00818524
0.0117085
0.0296953
0.0348506
0.0310409
0.00317259
0.00619038
0.0251402
0.0375242
0.0341893
0.0053176
0.0229262
0.0409266
0.0370864
0.0053453
0.0244512
0.0446771
0.0401014
0.00552819
0.0277721
0.0486507
0.0434558
0.00580852
0.0326559
0.0529592
0.0471666
0.00644615
0.040423
0.0576981
0.0512832
0.011023
0.0522539
0.0627901
0.0555218
0.0438094
0.0643915
0.0672751
0.0591413
0.0594882
0.0701863
0.0692884
0.0613828
0.0526337
0.0662934
0.071714
0.0694366
0.0622624
0.0539375
0.0667526
0.0703095
0.0681634
0.061981
0.0543711
0.0644802
0.067509
0.0660194
0.0608547
0.054122
0.0613913
0.0642713
0.0634258
0.0592138
0.0533902
0.0583176
0.0610694
0.0606725
0.0573082
0.052338
0.0555421
0.0581068
0.0579692
0.0552963
0.0510746
0.053122
0.0554333
0.0553994
0.053257
0.0496587
0.051011
0.0529723
0.0529697
0.0512119
0.0481094
0.0491459
0.0506722
0.0506474
0.049148
0.0464202
0.0474085
0.0485062
0.0483853
0.0470351
0.0445707
0.0457429
0.0464157
0.0461334
0.044838
0.0425369
0.0441067
0.0443414
0.0438454
0.0425243
0.0402983
0.0424443
0.0422321
0.0414828
0.0400688
0.0378421
0.0407037
0.0400457
0.0390157
0.0374552
0.0351661
0.0388405
0.0377492
0.0364233
0.0346777
0.0322813
0.036818
0.0353172
0.0336939
0.0317422
0.0292133
0.0346059
0.0327316
0.0308251
0.0286669
0.0260042
0.0321792
0.0299818
0.0278251
0.0254845
0.0227145
0.0295234
0.0270695
0.0247173
0.0222458
0.0194264
0.0266385
0.0240151
0.0215466
0.0190244
0.0162439
0.0235595
0.0208701
0.0183859
0.015917
0.0132864
0.0203654
0.0177225
0.0153332
0.0130316
0.0106692
0.0171853
0.0146939
0.0125001
0.0104638
0.00846002
0.0142008
0.0119327
0.00999331
0.00826715
0.00664236
0.0116413
0.0096473
0.00795148
0.00650374
0.00521287
0.0101224
0.00822028
0.00667801
0.00540583
0.00435651
0.00990587
0.00808722
0.00659626
0.0054119
0.00454557
0.0114555
0.00917495
0.00738434
0.00606792
0.00541069
0.00575411
0.0067583
0.00255119
0.00582021
0.00246708
0.0055563
0.00553298
0.00553248
0.00560536
0.00575454
0.00701231
0.00287184
0.0030359
0.00213517
0.00286183
0.00202662
0.00283473
0.00210832
0.00284228
0.00284453
0.00285345
0.00285805
0.00305424
0.000551873
0.000389045
0.000367116
0.0003748
0.000346361
0.000659951
0.000399652
0.000401846
0.000479288
0.000467965
0.00058405
0.000457045
0.000563111
0.000658727
0.000666406
0.000788211
0.0007993
0.000834942
0.000867659
0.000897231
0.000973667
0.000891207
0.000988212
0.00111739
0.000880875
0.00106814
0.00125836
0.000862739
0.00114641
0.00140394
0.000864996
0.00125095
0.00157569
0.000951902
0.00142024
0.00176856
0.00119477
0.00165509
0.00199196
0.0010879
0.00130456
0.0019097
0.00221886
0.00118564
0.00154891
0.0021511
0.00244011
0.00147584
0.00182149
0.00238544
0.00266206
0.00176555
0.00211809
0.00259578
0.00288463
0.00205105
0.00240324
0.00281019
0.00311243
0.00334894
0.00234188
0.00266885
0.00303512
0.00334877
0.00361577
0.0026269
0.00293013
0.00327172
0.00359486
0.00389013
0.0029125
0.00319469
0.00351945
0.0038498
0.00416878
0.00320425
0.0034659
0.00377674
0.00411111
0.00444739
0.00350416
0.00374446
0.00404109
0.00437513
0.00472083
0.00381212
0.00402928
0.00430909
0.0046373
0.00498327
0.0041269
0.00431779
0.0045763
0.00489194
0.00522683
0.00444629
0.00460601
0.00483708
0.00513163
0.00543671
0.00476696
0.00488837
0.00508424
0.0053472
0.00560924
0.00508316
0.00515738
0.00530802
0.00552708
0.0057357
0.00538906
0.00540298
0.00549506
0.00565787
0.00580403
0.00567997
0.00561065
0.00562965
0.00572455
0.00580113
0.00594643
0.00576415
0.00569609
0.00571069
0.00571595
0.00616468
0.00586094
0.0056791
0.00560351
0.00554365
0.00631719
0.00589013
0.00557644
0.00540409
0.00528702
0.00639014
0.00584011
0.00541559
0.00512746
0.00494859
0.00638515
0.00573061
0.00521414
0.00483637
0.00459075
0.00633405
0.00561207
0.00503659
0.00460819
0.00429143
0.00630276
0.00556115
0.0049653
0.00450424
0.00413945
0.00635821
0.00563426
0.00504191
0.00455953
0.00415824
0.00649663
0.0057958
0.00520276
0.00469423
0.00424209
0.00658457
0.00589146
0.00527542
0.00472481
0.00421464
0.00634532
0.00567583
0.00503581
0.00443673
0.00387389
0.00557339
0.00492334
0.00428276
0.00366831
0.00308793
0.00537207
0.00463085
0.00388662
0.00316761
0.00250022
0.00100682
0.000705864
0.000514407
0.000412502
0.000341235
0.00120379
0.000980918
0.000789235
0.000628221
0.000511124
0.00104891
0.000756713
0.000578012
0.000549934
0.000545309
0.000613903
0.000643843
0.000697506
0.00072441
0.000868996
0.000971835
0.000820607
0.00115014
0.00131618
0.00088394
0.00142023
0.00165147
0.000931566
0.00167573
0.00196234
0.00102249
0.00191079
0.00221736
0.00120522
0.00213768
0.00244346
0.00156147
0.00236813
0.00263354
0.00123044
0.00177386
0.00257633
0.00277968
0.00170821
0.00214237
0.00274464
0.00287821
0.00215562
0.00247467
0.00286844
0.00293315
0.00247525
0.00270843
0.00294261
0.00295127
0.00267624
0.00284878
0.00297693
0.00294414
0.0027987
0.0029273
0.0029877
0.00292463
0.00275365
0.00288484
0.002976
0.00299204
0.00290419
0.00272481
0.00296518
0.00302362
0.00300451
0.00289237
0.00270229
0.00306145
0.00308879
0.00303597
0.00289621
0.00269056
0.00318603
0.0031825
0.00309349
0.00292051
0.00269234
0.00334276
0.003309
0.00318026
0.00296765
0.00270896
0.00352789
0.00346548
0.00329577
0.00303729
0.00274067
0.00373158
0.00364399
0.00343558
0.00312672
0.00278964
0.00393946
0.00383358
0.00359148
0.00323074
0.00284888
0.00413473
0.00402221
0.00375
0.00334436
0.00291258
0.00430613
0.00419656
0.00390087
0.00346028
0.00297461
0.00444654
0.00433938
0.00404326
0.00356985
0.00303113
0.00455392
0.00444868
0.00417201
0.00366967
0.00308188
0.00463138
0.0045293
0.00427117
0.00377801
0.00313189
0.00468579
0.00459099
0.00435098
0.00390177
0.00319123
0.00472804
0.00464782
0.00443173
0.00402539
0.00331984
0.00477216
0.00471649
0.00453611
0.00417435
0.00353593
0.00483073
0.00481124
0.00468023
0.00437356
0.00380777
0.0049028
0.00492726
0.00485392
0.00461225
0.00411397
0.00495784
0.00502167
0.0050013
0.00482387
0.00439364
0.00493959
0.00502119
0.00503178
0.00490014
0.00452903
0.00481192
0.00487306
0.00487664
0.00475543
0.0044183
0.00463486
0.00461404
0.00455258
0.00439852
0.00406822
0.00442315
0.00431298
0.00416458
0.00394519
0.00360948
0.00496807
0.00445488
0.00393311
0.00341115
0.00289687
0.00163329
0.00122299
0.000894276
0.000654882
0.000483992
0.00136738
0.00117332
0.000983751
0.00080806
0.000654053
0.00170698
0.00131206
0.000837401
0.000646581
0.000566818
0.000573089
0.000653423
0.000696914
0.000783857
0.000992133
0.00110001
0.00103945
0.00136794
0.00154188
0.00124084
0.00169981
0.00192745
0.00142032
0.00200032
0.00224996
0.00165752
0.00227391
0.00253012
0.00193668
0.00254638
0.00277346
0.00241603
0.00279986
0.00296531
0.0018661
0.00240084
0.00297534
0.00309484
0.00229144
0.00269386
0.00311235
0.00317159
0.00271673
0.00297371
0.00321047
0.00320493
0.00299892
0.00315567
0.00326371
0.00320498
0.00315944
0.00325329
0.00328332
0.00318627
0.00325228
0.00330813
0.00329051
0.00316427
0.00332833
0.00335797
0.00330575
0.00315196
0.00290196
0.00342299
0.00342918
0.00334529
0.00315953
0.00287816
0.00355546
0.00353744
0.00341932
0.00319415
0.00287176
0.00373171
0.00368909
0.00353254
0.00326026
0.00288595
0.00394695
0.00388198
0.00368427
0.00335921
0.00292221
0.00418822
0.00410397
0.00387083
0.00348787
0.00298167
0.00443794
0.00433991
0.00408312
0.00364132
0.00306402
0.00467777
0.00457323
0.00430702
0.00381281
0.00316731
0.00489228
0.004787
0.00451531
0.00400489
0.00328652
0.0050712
0.00497033
0.00470221
0.00420361
0.00341776
0.00521115
0.00512007
0.00486346
0.00438406
0.00357949
0.00531529
0.00523951
0.00500143
0.00454747
0.00377713
0.0053925
0.00533757
0.00512628
0.00470723
0.00399407
0.00545484
0.00542687
0.00525129
0.00487524
0.00421406
0.00551439
0.00552041
0.00539012
0.00506858
0.00446842
0.00557833
0.00562555
0.00555137
0.00529922
0.0047775
0.00564053
0.00573413
0.00572476
0.0055545
0.00512824
0.00567217
0.00581135
0.0058676
0.00578328
0.00546267
0.00562431
0.00579952
0.00591064
0.00590209
0.00568126
0.0054588
0.00565295
0.00579727
0.00583728
0.00568519
0.00519618
0.00538431
0.0055285
0.00557091
0.00542573
0.00490736
0.00502763
0.00510122
0.00507202
0.00486234
0.0047068
0.00470737
0.00465413
0.00450916
0.00422511
0.00574281
0.00526341
0.0047536
0.00421904
0.00366723
0.00212329
0.00166962
0.00128043
0.00096003
0.00070693
0.00146563
0.00128237
0.00109774
0.00092251
0.00076337
0.00223643
0.00181276
0.00114151
0.000821711
0.000661818
0.000608729
0.000715468
0.00075486
0.000937734
0.00120752
0.00133994
0.00134564
0.00163871
0.00183447
0.00165605
0.00199754
0.00222482
0.00192787
0.00232363
0.00255867
0.00226011
0.00263508
0.0028475
0.00264847
0.0029463
0.00309444
0.00327491
0.00321776
0.00328069
0.00266077
0.00302038
0.0033739
0.00339233
0.00291425
0.00323543
0.00348438
0.00344467
0.00327692
0.00345522
0.00354637
0.00345303
0.00349493
0.00357333
0.00356199
0.00343392
0.00359906
0.00361875
0.00355592
0.00340793
0.00366099
0.00364813
0.00355942
0.0033951
0.00373767
0.00370372
0.00359566
0.00340916
0.00386137
0.00380871
0.00367819
0.00346004
0.00314545
0.00404192
0.00396975
0.00381181
0.00355319
0.00318146
0.0042737
0.0041821
0.00399425
0.00369076
0.00324862
0.00454056
0.00443248
0.00421678
0.00387026
0.00334908
0.00482062
0.00470229
0.00446512
0.0040798
0.00348893
0.00509122
0.00497135
0.00472274
0.00431027
0.00366774
0.00533284
0.00522084
0.00497248
0.00454943
0.00388132
0.00553214
0.00543619
0.00520042
0.00478243
0.0041054
0.00568378
0.00561056
0.0053989
0.00500036
0.0043312
0.00579053
0.00574615
0.00556865
0.00520427
0.00456351
0.00586109
0.00585123
0.00571673
0.00540133
0.00480867
0.00590767
0.00593757
0.00585465
0.00560168
0.00507526
0.00594318
0.00601775
0.0059946
0.00581587
0.00537437
0.00597634
0.00609945
0.00614282
0.00604922
0.00571127
0.00600638
0.00617943
0.0062934
0.00629357
0.00607583
0.00601698
0.00623707
0.00641975
0.00651494
0.00642585
0.00597717
0.00623607
0.00647736
0.00665721
0.00668947
0.00585476
0.0061407
0.00642396
0.00666644
0.00679316
0.00564832
0.00595207
0.00625929
0.00653282
0.00670501
0.00542563
0.00574125
0.00605289
0.00631337
0.00645095
0.00520267
0.00545514
0.00569133
0.0058496
0.00584443
0.00504156
0.00512142
0.00515219
0.00509152
0.00488722
0.00683854
0.00634633
0.00579562
0.00519805
0.00456945
0.00246191
0.00200079
0.00159364
0.00123903
0.000941502
0.00153948
0.00136121
0.00117969
0.0010059
0.000847203
0.00260027
0.00218192
0.00138241
0.000989127
0.00078376
0.000710016
0.00087998
0.000972589
0.00115976
0.00150414
0.0016802
0.0016715
0.00194574
0.00218783
0.00205126
0.00231314
0.00257506
0.00238748
0.00266618
0.00290872
0.00281443
0.0030104
0.0031987
0.00331566
0.00335885
0.0034477
0.00409518
0.00366321
0.00363523
0.00216248
0.00352548
0.00362888
0.00382701
0.00373787
0.0035585
0.00379197
0.00391434
0.00376895
0.00385117
0.0039568
0.00393533
0.0037511
0.00399977
0.00401042
0.00390919
0.0037127
0.00404798
0.00400835
0.00387911
0.00368304
0.00408876
0.00402543
0.00388692
0.00368746
0.00418088
0.00410316
0.00395476
0.00374042
0.00434603
0.00425443
0.00408958
0.0038486
0.00457819
0.00447235
0.00428693
0.00401233
0.00364219
0.00485706
0.00473987
0.00453533
0.00422668
0.00379705
0.00515556
0.00503423
0.00481804
0.00448174
0.0039961
0.00544573
0.0053309
0.00511566
0.0047651
0.00423463
0.00570456
0.00560833
0.00540877
0.00506192
0.0045049
0.00591589
0.00584932
0.00567955
0.00535594
0.00479588
0.00607192
0.00604331
0.00591541
0.00563257
0.00509546
0.00617413
0.00618962
0.00611318
0.0058855
0.00539674
0.00623058
0.00629475
0.00627729
0.00611715
0.0056992
0.00625155
0.00636762
0.00641495
0.00633296
0.00600489
0.00624752
0.00641711
0.00653355
0.00653829
0.00631682
0.00622731
0.00645048
0.00663887
0.00673746
0.00663845
0.00619404
0.00646816
0.00672805
0.00692377
0.0069566
0.00614346
0.00646219
0.0067877
0.00707665
0.00724087
0.0060653
0.00641916
0.00679877
0.00716865
0.00745307
0.00595056
0.00632873
0.00674722
0.00717874
0.00756079
0.00579642
0.00619116
0.00663426
0.00710429
0.00755083
0.0056327
0.00604645
0.00650519
0.00698753
0.0074504
0.00556602
0.00601339
0.00648536
0.006948
0.0073517
0.00554402
0.00596647
0.00640789
0.0067899
0.00702185
0.0054146
0.00559676
0.00573933
0.00579153
0.00568959
0.00825049
0.00772287
0.00709647
0.00639571
0.00565173
0.0026688
0.00221211
0.00180403
0.00144194
0.00113205
0.0015909
0.00141563
0.00123589
0.00106394
0.000908834
0.0028121
0.0024019
0.00154179
0.00113266
0.000923081
0.000798784
0.00122468
0.00138988
0.00140715
0.00185139
0.00210893
0.00196908
0.0022755
0.00258595
0.00238623
0.00264911
0.00295449
0.00278492
0.0030273
0.00328312
0.00329805
0.00340578
0.00357637
0.00390854
0.00379852
0.00383579
0.00483413
0.00416535
0.00404287
0.0030657
0.00441234
0.004245
0.00435491
0.00415171
0.00384591
0.00422124
0.00438889
0.0044172
0.00416696
0.00444772
0.00449918
0.00439186
0.0041281
0.00452663
0.00448813
0.00432632
0.00408069
0.00452632
0.00445016
0.00428636
0.00406412
0.00456247
0.0044758
0.0043198
0.00410658
0.00468538
0.00459419
0.0044386
0.00421799
0.0048964
0.00479939
0.00463676
0.0043985
0.00516985
0.00506809
0.00489805
0.00464097
0.00547302
0.00537281
0.0052023
0.00493396
0.00452995
0.0057734
0.00568582
0.00552693
0.00526037
0.00483275
0.00604291
0.0059807
0.00584923
0.00560303
0.00517227
0.00626369
0.00623956
0.00615044
0.00594494
0.00553566
0.00642638
0.00645017
0.00641525
0.00626757
0.0059059
0.00652984
0.00660748
0.00663429
0.00655597
0.00626464
0.00658012
0.00671498
0.00680842
0.0068077
0.00660478
0.00658556
0.00677924
0.00694264
0.00702605
0.00692641
0.00655243
0.00680457
0.00703963
0.00721161
0.00722526
0.00648559
0.0067933
0.00709956
0.00736206
0.00749396
0.00638903
0.00674725
0.00712225
0.00747566
0.0077288
0.00626516
0.00666571
0.00710309
0.00754367
0.00791643
0.00611817
0.00655048
0.00703928
0.00755732
0.00804222
0.00595705
0.00640986
0.00693612
0.00751617
0.00809773
0.00579656
0.00626097
0.00681042
0.00743347
0.0080882
0.00565504
0.0061307
0.00669449
0.0073399
0.00803647
0.00558736
0.006087
0.00666175
0.00730617
0.00799904
0.00572676
0.00627694
0.00687003
0.00749123
0.0081145
0.00599569
0.00660783
0.0072595
0.00786081
0.00833572
0.00587386
0.00619486
0.00649235
0.00670226
0.00674153
0.00999009
0.00940458
0.00866599
0.00782115
0.0069233
0.00277483
0.00232046
0.00191361
0.00155603
0.00125479
0.00162072
0.00144587
0.00126609
0.00109683
0.000949222
0.00290278
0.00248689
0.00162532
0.00125662
0.00109269
0.000939502
0.00164526
0.00189377
0.00165318
0.00222295
0.00256863
0.00221804
0.0026193
0.00299688
0.00266936
0.00300041
0.00334404
0.00311999
0.00340699
0.00367191
0.00370676
0.00382692
0.00397905
0.00441519
0.00427719
0.00426595
0.00549645
0.00474074
0.00451731
0.00405006
0.00531721
0.00489794
0.00497492
0.00464759
0.00458236
0.00491729
0.00504828
0.00500311
0.00464789
0.0049415
0.00507863
0.00509641
0.00492334
0.00459173
0.0050875
0.00502091
0.00482411
0.00454863
0.00505016
0.00496334
0.00479308
0.00456539
0.00509817
0.00501691
0.0048711
0.00466518
0.00525679
0.00518186
0.00504802
0.00484713
0.00550042
0.00542913
0.00530134
0.00509996
0.0057882
0.00572335
0.00560508
0.00540824
0.00608319
0.0060332
0.0059342
0.00575399
0.00635541
0.00633277
0.00626564
0.00611601
0.00582457
0.00658246
0.00659783
0.00657694
0.00647562
0.00622553
0.00675428
0.00681814
0.00685381
0.00681768
0.00662983
0.00686775
0.00698716
0.00708625
0.00712456
0.0070181
0.00692531
0.00710365
0.00726912
0.00738479
0.00737065
0.00693204
0.00717046
0.00740398
0.00759962
0.00768375
0.00689116
0.00718911
0.00749158
0.00776941
0.00795626
0.00680209
0.00715728
0.00752885
0.00788994
0.00818063
0.00666547
0.00707281
0.00751185
0.00795711
0.00835354
0.00648452
0.00693636
0.00743963
0.00797018
0.00847644
0.00626748
0.00675278
0.00731258
0.0079258
0.0085419
0.00603258
0.0065387
0.00714218
0.00782793
0.00854881
0.00580535
0.00632043
0.00695293
0.00769558
0.00850966
0.00561774
0.00613567
0.0067825
0.00756275
0.0084476
0.00551025
0.00603811
0.00669342
0.00748572
0.00840351
0.00556524
0.00612225
0.00678254
0.00755959
0.00845649
0.0059167
0.00653207
0.00720826
0.0079552
0.00877291
0.00651789
0.00727074
0.00804729
0.00882896
0.00955859
0.00649022
0.00704466
0.00763278
0.00818588
0.0086082
0.0120391
0.0113787
0.0105027
0.00949839
0.00844756
0.00281433
0.00235404
0.0019434
0.00159337
0.00131283
0.00163319
0.00145515
0.00127325
0.00110933
0.00097679
0.00290747
0.00246517
0.0016468
0.00139522
0.00134572
0.00114731
0.0020991
0.00242954
0.00188235
0.00259474
0.00302449
0.00243402
0.00297097
0.00340455
0.00290588
0.00336731
0.00373762
0.00339857
0.00380704
0.00407814
0.00404035
0.00427941
0.00441662
0.00484103
0.00480692
0.00474991
0.00610225
0.00540653
0.00507239
0.00509927
0.00625436
0.00561365
0.00570198
0.00523723
0.00534838
0.00566079
0.005784
0.00567946
0.00521872
0.00562693
0.00575275
0.00575727
0.00553657
0.00514957
0.0056739
0.00569319
0.00562057
0.00541284
0.00512527
0.00563258
0.00556072
0.00540749
0.00519032
0.00569997
0.00564928
0.00553429
0.00535044
0.00588135
0.00584556
0.00575371
0.00559185
0.00612812
0.00610432
0.00603183
0.0058896
0.00639711
0.00638888
0.00634019
0.00622464
0.0066565
0.00667155
0.00665506
0.00657731
0.00688377
0.00693143
0.00695628
0.00692684
0.00706571
0.0071555
0.00723024
0.00725929
0.00718863
0.0071962
0.00733606
0.00746749
0.0075624
0.00756837
0.00727363
0.00746871
0.00766135
0.00782647
0.00791608
0.00729869
0.00755149
0.00780807
0.00804569
0.00822005
0.00727104
0.00758212
0.00790502
0.00821841
0.00848074
0.00718734
0.00755593
0.00794717
0.00834086
0.00869681
0.00704091
0.00746637
0.00792686
0.00840566
0.00886186
0.00683097
0.00730785
0.00783721
0.00840567
0.00896967
0.00656219
0.00708046
0.0076764
0.00833831
0.00902105
0.00625073
0.00679529
0.00745057
0.00820492
0.00901536
0.00592788
0.006483
0.00718008
0.00801626
0.00895326
0.00563223
0.00618364
0.00690539
0.00780206
0.00884908
0.00541636
0.0059636
0.00668996
0.00761729
0.00873872
0.00535451
0.00590814
0.00662725
0.0075509
0.00869206
0.00555064
0.00612569
0.00683547
0.00772639
0.0088242
0.00608375
0.00672003
0.00744815
0.00830669
0.00931764
0.00685221
0.00766415
0.00851858
0.00943146
0.0103926
0.00740427
0.00825062
0.00921272
0.0102487
0.0111635
0.0139998
0.0132915
0.0123394
0.0112271
0.0100345
0.00282097
0.00234419
0.00192162
0.00158299
0.00133786
0.00163544
0.00145164
0.00126934
0.001124
0.0010246
0.00286226
0.00237009
0.00163928
0.00164631
0.00178858
0.00138545
0.00255419
0.00296793
0.00208477
0.00296364
0.00346603
0.00262322
0.00333523
0.00380754
0.00310055
0.00375392
0.00414352
0.00361999
0.00423291
0.00451216
0.00430631
0.00477221
0.00489907
0.00520334
0.00539762
0.00529863
0.0066781
0.00617682
0.0057217
0.00621613
0.00724422
0.00640841
0.00654495
0.00593085
0.00614466
0.00645776
0.00659943
0.00644844
0.00588498
0.00633959
0.00647341
0.00648485
0.00623517
0.00580835
0.00631931
0.00635024
0.00629369
0.00609783
0.00581475
0.00626482
0.00627936
0.00624386
0.00612505
0.00593023
0.00635478
0.00634859
0.00627766
0.00613271
0.00652852
0.00654354
0.00650436
0.00639447
0.00675079
0.00678371
0.00677221
0.00669564
0.00698401
0.00703713
0.00705542
0.0070157
0.00720329