/*--------------------------------*- C++ -*----------------------------------*\
| =========                 |                                                 |
| \\      /  F ield         | OpenFOAM: The Open Source CFD Toolbox           |
|  \\    /   O peration     | Version:  2.3.1                                 |
|   \\  /    A nd           | Web:      www.OpenFOAM.org                      |
|    \\/     M anipulation  |                                                 |
\*---------------------------------------------------------------------------*/
FoamFile
{
    version     2.0;
    format      ascii;
    class       volScalarField;
    location    "600";
    object      nut;
}
// * * * * * * * * * * * * * * * * * * * * * * * * * * * * * * * * * * * * * //

dimensions      [0 2 -1 0 0 0 0];

internalField   nonuniform List<scalar> 
6852
(
0.00467445
0.00482307
0.00481485
0.00459437
0.00216628
0.00228466
0.00235608
0.00234928
0.00201413
0.00217593
0.00231088
0.00238693
0.00175137
0.00191853
0.00211227
0.00228902
0.00166132
0.00180393
0.00197876
0.0021634
0.00180688
0.00193794
0.00209857
0.0022703
0.00195948
0.00209028
0.00225068
0.00242106
0.00212084
0.00225244
0.00241536
0.00258729
0.00270792
0.00229362
0.0024252
0.00259085
0.00276375
0.00286659
0.00247759
0.00260801
0.00277526
0.00294565
0.0030233
0.00267949
0.00280739
0.00297195
0.00312455
0.00316977
0.00291956
0.00303539
0.00318347
0.00329184
0.00329504
0.0031782
0.00327279
0.00338667
0.00343357
0.00338734
0.00343031
0.0034932
0.00354303
0.00352948
0.00343525
0.0036416
0.00365072
0.00363669
0.00356784
0.0034327
0.00376406
0.00372445
0.00365829
0.00354492
0.00337989
0.00379252
0.00371517
0.00360986
0.00346494
0.00328248
0.00373835
0.00363347
0.00350147
0.00333771
0.0031497
0.00361857
0.00349511
0.00334723
0.00317571
0.00299221
0.00345191
0.00331715
0.00316207
0.00299161
0.00282025
0.00325586
0.00311528
0.00295951
0.00279657
0.00264243
0.00304487
0.00290235
0.00275047
0.002599
0.00246345
0.0028305
0.00268772
0.00254215
0.00240602
0.00229298
0.00261923
0.00247937
0.0023438
0.00222497
0.00213145
0.00241674
0.00228244
0.0021591
0.00205696
0.0019779
0.00222692
0.00210023
0.00198968
0.00190135
0.00183062
0.00205255
0.0019346
0.00183552
0.00175642
0.00168792
0.00189566
0.00178621
0.00169554
0.00162032
0.00154883
0.00175746
0.00165477
0.00156835
0.00149203
0.0014142
0.00163839
0.00153956
0.00145328
0.00137255
0.0012878
0.00153859
0.00144064
0.00135198
0.00126664
0.0011782
0.00145931
0.00136068
0.00126994
0.00118307
0.00109643
0.00140323
0.00130401
0.00121301
0.00112738
0.00104252
0.00136879
0.00126803
0.00117575
0.00108853
0.00100197
0.00133722
0.00123366
0.00113852
0.00104809
0.000959693
0.0012875
0.0011798
0.00108211
0.000992276
0.000905775
0.00123556
0.00112648
0.00102729
0.000936583
0.000852577
0.00118713
0.00107988
0.000981278
0.000890636
0.000807992
0.001144
0.00104166
0.000947094
0.000859856
0.000781546
0.00112006
0.00101905
0.000927649
0.000846432
0.000776843
0.00241883
0.0021682
0.00194872
0.0017687
0.00163774
0.00197555
0.00209274
0.00218198
0.00220596
0.0021302
0.00148849
0.00150491
0.00156062
0.00163923
0.00163844
0.00149539
0.00136098
0.00134605
0.00163292
0.00157999
0.00151826
0.00142522
0.00190478
0.00168352
0.00156578
0.0014839
0.00278615
0.00222417
0.00188526
0.00168144
0.00351173
0.00272768
0.0022126
0.00189258
0.00396778
0.00306829
0.00245171
0.00205528
0.00418799
0.0032453
0.00258973
0.00215696
0.00174979
0.00418
0.00326295
0.00262551
0.0021948
0.00175596
0.00389936
0.0031168
0.00256143
0.0021245
0.00174198
0.00346015
0.00287501
0.00243092
0.00198891
0.001725
0.00305241
0.00262313
0.00225774
0.00187363
0.00172204
0.00271611
0.00239989
0.00203786
0.00180335
0.00173747
0.00245379
0.00214828
0.00189774
0.00178041
0.00176646
0.0021829
0.00197548
0.00183652
0.00178869
0.00180038
0.00201886
0.00189516
0.00182358
0.00181098
0.00183144
0.00194537
0.00186915
0.00183258
0.00183489
0.00185464
0.00191878
0.00186748
0.00184731
0.00185342
0.00186787
0.00191223
0.00187338
0.00185951
0.00186381
0.00187129
0.00191223
0.001879
0.00186606
0.00186596
0.00186639
0.00191297
0.0018815
0.00186668
0.00186126
0.00185543
0.00191251
0.00188057
0.00186251
0.00185177
0.00184094
0.00191087
0.00187709
0.00185525
0.00183978
0.00182549
0.0019087
0.00187235
0.00184679
0.00182753
0.00181154
0.00190753
0.001868
0.00183889
0.00181696
0.00180176
0.00190761
0.00186526
0.00183352
0.00181086
0.00180021
0.00190982
0.00186558
0.00183288
0.00181251
0.00181122
0.0019153
0.00187085
0.00183997
0.00182623
0.00183969
0.00192585
0.00188404
0.0018593
0.00185791
0.00189076
0.00194481
0.00191032
0.00189783
0.00191472
0.00196743
0.0019786
0.00195817
0.00196451
0.0020015
0.00206052
0.00203832
0.0020386
0.00206423
0.00210595
0.00215568
0.00213388
0.00214798
0.00217605
0.00221236
0.0022424
0.00224564
0.00226175
0.00228514
0.00230649
0.00231001
0.00235191
0.00236349
0.0023751
0.00237889
0.00235963
0.00242636
0.0024353
0.002439
0.00242852
0.00238904
0.00246598
0.00247749
0.00247633
0.0024527
0.00239188
0.00246939
0.00248369
0.00247726
0.00243893
0.00235411
0.00224078
0.00226369
0.0022592
0.00221473
0.00211697
0.00117367
0.00107673
0.000992776
0.000922505
0.000852278
0.00200886
0.00213707
0.00222565
0.00223084
0.00213622
0.00152015
0.00147225
0.00142504
0.00143097
0.00149317
0.00158526
0.00156798
0.00145369
0.00135346
0.00133965
0.0013702
0.00138047
0.00137387
0.00128036
0.00119553
0.00124626
0.00130947
0.00212344
0.00145583
0.00133056
0.00134888
0.00317459
0.00191444
0.00154694
0.00147763
0.0039206
0.00231055
0.00177599
0.0016374
0.00428727
0.00253666
0.00195211
0.00178379
0.00423545
0.00256597
0.002048
0.00189232
0.00179143
0.00355273
0.00239862
0.00205554
0.001952
0.00179751
0.00285858
0.00225274
0.00204963
0.00198617
0.00175039
0.0025832
0.00219056
0.00205951
0.00195998
0.00167153
0.0025042
0.00219309
0.0020787
0.00187314
0.00159029
0.00251174
0.00222281
0.00205649
0.00176372
0.00152769
0.00254017
0.00224965
0.00196519
0.00166615
0.00148928
0.00255428
0.00219716
0.00185612
0.0015971
0.00147163
0.00249072
0.00209518
0.00176455
0.00155566
0.00146832
0.00237858
0.00199222
0.00169954
0.00153449
0.00147335
0.00226033
0.00190723
0.00165693
0.00152613
0.00148228
0.00215565
0.00184173
0.0016299
0.00152498
0.00149228
0.00206785
0.00179176
0.00161281
0.00152744
0.0015019
0.00199476
0.00175308
0.00160185
0.00153149
0.00151056
0.00193567
0.00172261
0.00159477
0.00153614
0.00151837
0.00188626
0.00170083
0.00159159
0.00154157
0.00152613
0.00184531
0.00168508
0.00159152
0.00154821
0.00153514
0.00181207
0.00167444
0.00159417
0.00155654
0.001547
0.00178614
0.00166853
0.00159973
0.0015677
0.00156379
0.00176738
0.00166743
0.00160906
0.00158354
0.00158797
0.00175599
0.00167189
0.00162381
0.00160665
0.00162223
0.00175281
0.00168358
0.00164669
0.00164039
0.00166924
0.00175978
0.00170558
0.00168162
0.00168852
0.00173101
0.00178069
0.0017425
0.00173313
0.00175417
0.00180875
0.0018209
0.00179923
0.00180489
0.00183966
0.00190354
0.00188505
0.00187977
0.00190019
0.0019473
0.00201673
0.00197865
0.00198903
0.00202228
0.00207655
0.00214362
0.00210847
0.00212862
0.00216634
0.00221805
0.00227265
0.00227164
0.00229411
0.00232693
0.00236374
0.00239092
0.00246791
0.0024845
0.00250034
0.00250559
0.00248458
0.00244963
0.00247138
0.00247656
0.00245253
0.00238449
0.00117043
0.00109297
0.00102487
0.000965914
0.000906933
0.00210227
0.00219513
0.0022466
0.00222239
0.00210453
0.00138777
0.0013606
0.00137981
0.00143806
0.00150844
0.00166023
0.00162622
0.00151778
0.00143298
0.0014118
0.00133611
0.00140689
0.00141128
0.00140776
0.000984708
0.0011455
0.00127617
0.00135529
0.00125414
0.00109501
0.00120914
0.0013148
0.00180077
0.00118849
0.00122117
0.00131257
0.00221609
0.00130057
0.00127259
0.00134166
0.00237889
0.00137169
0.00133094
0.001383
0.00225554
0.00139521
0.00137868
0.00142517
0.00171737
0.00139422
0.00140662
0.00146747
0.00162241
0.00145895
0.00141734
0.00143404
0.00152608
0.00167503
0.00147794
0.00144032
0.00147249
0.00160401
0.00169108
0.00151696
0.00147245
0.00153316
0.00167632
0.00167081
0.00156566
0.00152731
0.00161155
0.00171902
0.00162814
0.00163539
0.00160504
0.00169259
0.00172453
0.00157982
0.00172418
0.00169605
0.00175041
0.00170276
0.00153736
0.00182244
0.00178195
0.0017756
0.0016689
0.00150548
0.00191763
0.00184276
0.00177395
0.00163427
0.00148439
0.00199178
0.00187362
0.00175642
0.00160448
0.00147226
0.00203608
0.00187937
0.00173208
0.00158111
0.00146683
0.00205176
0.00186777
0.00170645
0.00156378
0.00146611
0.00204439
0.00184576
0.00168223
0.0015514
0.00146858
0.00202069
0.00181842
0.00166049
0.00154288
0.00147329
0.00198655
0.00178934
0.00164166
0.00153742
0.00147979
0.00194675
0.00176072
0.00162581
0.00153457
0.00148811
0.00190494
0.00173394
0.00161293
0.0015342
0.00149865
0.00186385
0.0017099
0.0016031
0.00153657
0.00151217
0.00182552
0.00168934
0.00159668
0.00154239
0.00152983
0.00179152
0.001673
0.00159441
0.00155285
0.00155307
0.00176317
0.00166192
0.00159756
0.00156959
0.00158361
0.00174194
0.00165759
0.00160801
0.00159471
0.00162332
0.0017297
0.00166222
0.00162822
0.00163058
0.00167403
0.00172913
0.00167879
0.0016612
0.0016798
0.00173753
0.00174402
0.00171125
0.00171064
0.00174533
0.00181588
0.00178012
0.00176524
0.00178144
0.00183081
0.00191153
0.00184819
0.00185122
0.00188271
0.0019429
0.0020275
0.00197352
0.00199034
0.00202954
0.00208906
0.00216156
0.00219093
0.00221155
0.00224326
0.0022801
0.00231091
0.00231291
0.00233741
0.00235438
0.00235384
0.00232278
0.00114344
0.00107355
0.00101273
0.000960995
0.000911374
0.00208419
0.00215159
0.00217267
0.00211412
0.0019648
0.0014722
0.00151589
0.00157684
0.00163933
0.001673
0.00170122
0.00168302
0.001625
0.00161226
0.00162404
0.00105689
0.00136529
0.00151265
0.00154413
0.00159202
0.000932904
0.00132684
0.00147439
0.00153908
0.000952044
0.00123855
0.00145187
0.00150845
0.0011045
0.00124293
0.00147466
0.00150421
0.00121386
0.00129139
0.00152876
0.0015158
0.00123966
0.00136205
0.00157898
0.00151163
0.00119791
0.00146072
0.00158999
0.0014855
0.00115905
0.00159971
0.00154452
0.00144777
0.00150376
0.00163187
0.00147918
0.00141181
0.00140163
0.0016439
0.00158024
0.00142779
0.00138597
0.00138705
0.00163619
0.00151595
0.00139654
0.00137374
0.00138314
0.00158934
0.00146614
0.00138239
0.00137369
0.00138681
0.00154371
0.00143512
0.00138307
0.0013819
0.00139508
0.00150885
0.00142032
0.00139309
0.00139443
0.00140568
0.00148639
0.00141899
0.00140695
0.00140829
0.00141717
0.00147603
0.00142794
0.00142227
0.00142166
0.00142874
0.00147735
0.00144411
0.00143713
0.00143371
0.00143997
0.00148745
0.00146178
0.00145042
0.00144427
0.00145077
0.00150338
0.00147704
0.00146175
0.00145355
0.00146131
0.00151924
0.00148979
0.00147125
0.00146202
0.00147196
0.00153245
0.00150021
0.00147939
0.00147029
0.00148336
0.00154304
0.00150875
0.00148688
0.00147916
0.00149633
0.00155133
0.00151611
0.0014946
0.00148958
0.00151191
0.00155795
0.00152322
0.0015036
0.00150268
0.00153132
0.00156389
0.00153126
0.00151513
0.00151978
0.00155591
0.00157049
0.00154169
0.00153074
0.00154243
0.0015871
0.00157953
0.00155635
0.00155222
0.00157234
0.00162625
0.00159333
0.00157747
0.00158167
0.00161124
0.0016744
0.00161472
0.00160767
0.0016213
0.00166065
0.00173188
0.00164703
0.00164975
0.00167313
0.00172137
0.00179787
0.00169382
0.00170639
0.00173853
0.00179313
0.00187028
0.00175837
0.0017795
0.00181775
0.00187439
0.00194638
0.0018427
0.00186945
0.00190947
0.00196247
0.00202323
0.00194611
0.00197428
0.00201058
0.00205346
0.00209678
0.00206475
0.00208986
0.00211695
0.00214291
0.00216119
0.00219046
0.00221017
0.00222344
0.00222573
0.00221082
0.00218281
0.00219892
0.00219953
0.00217707
0.00212361
0.00116548
0.00107687
0.000999132
0.000933497
0.000870981
0.00424028
0.00433617
0.00430821
0.00408153
0.00367818
0.00190216
0.00196893
0.00199313
0.0019116
0.00174704
0.00183467
0.00195488
0.00208175
0.0020282
0.00185535
0.000925322
0.00127583
0.0019349
0.00209614
0.00197825
0.0009605
0.000889941
0.00178032
0.00217505
0.00207615
0.0008578
0.00170012
0.00227152
0.00216233
0.000881431
0.00175576
0.00237332
0.00224851
0.000898593
0.00187119
0.00247662
0.00234066
0.000903648
0.00202906
0.00258396
0.00243855
0.000915913
0.00225751
0.00269709
0.00254274
0.00111824
0.00256669
0.00281358
0.00264573
0.00235016
0.00284924
0.00291234
0.00273061
0.00273861
0.00297468
0.00295559
0.00278188
0.002576
0.00289101
0.00300688
0.00295875
0.00280174
0.00260771
0.00290101
0.00297729
0.0029315
0.0027954
0.00261817
0.0028512
0.00291739
0.00288503
0.00276988
0.00261217
0.00278207
0.00284658
0.00282779
0.00273228
0.00259445
0.00271153
0.00277476
0.00276573
0.00268796
0.00256876
0.00264622
0.00270662
0.00270342
0.00264035
0.00253756
0.00258792
0.00264363
0.00264282
0.00259121
0.00250214
0.00253598
0.00258428
0.00258421
0.00254097
0.0024628
0.00248919
0.00252755
0.00252693
0.00248924
0.00241918
0.00244479
0.00247294
0.00246985
0.00243515
0.00237049
0.00240146
0.00241906
0.00241169
0.00237759
0.00231578
0.00235812
0.00236439
0.00235113
0.00231544
0.00225402
0.00231326
0.00230747
0.00228691
0.00224759
0.00218425
0.00226533
0.00224694
0.00221786
0.00217305
0.0021056
0.00221287
0.00218156
0.00214291
0.00209093
0.00201739
0.00215449
0.00211012
0.00206106
0.00200047
0.00191913
0.00208876
0.00203141
0.00197136
0.0019011
0.00181066
0.0020142
0.00194421
0.00187298
0.00179247
0.00169226
0.00192929
0.00184737
0.00176529
0.0016747
0.00156499
0.00183261
0.00174003
0.00164818
0.00154871
0.00143106
0.00172344
0.0016221
0.0015225
0.00141659
0.00129425
0.00160236
0.00149478
0.00139037
0.00128178
0.00115979
0.00147195
0.00136108
0.00125537
0.00114857
0.00103276
0.00133805
0.00122655
0.00112246
0.00102092
0.000915116
0.00121148
0.00110285
0.00100124
0.000905517
0.000810688
0.00112968
0.00101802
0.000917568
0.000825555
0.000741113
0.00111753
0.00100975
0.000911935
0.000826018
0.000757021
0.00240354
0.00215103
0.00192975
0.0017493
0.00165185
0.000851733
0.00184613
0.00162349
0.000856611
0.00313039
0.000836965
0.000835208
0.000835169
0.000840652
0.000851765
0.00188051
0.00060172
0.00123734
0.00447441
0.000600671
0.00601848
0.000597819
0.00624107
0.000598615
0.000598852
0.00059979
0.000600274
0.00124107
0.000523038
0.000441002
0.000430521
0.000435458
0.00041871
0.000286248
0.000222158
0.000225493
0.00024627
0.000243375
0.000539048
0.000479421
0.000267058
0.000288764
0.000290473
0.000631605
0.000317966
0.000325018
0.000662409
0.000336756
0.000350869
0.000671164
0.000353295
0.000375751
0.000667144
0.000367212
0.000398665
0.000660113
0.000380355
0.000421022
0.000660861
0.000397264
0.000445988
0.00069352
0.000423338
0.000472525
0.000777225
0.000457072
0.000501518
0.000743704
0.000406392
0.000490983
0.000529332
0.000387872
0.00044275
0.000521109
0.000555087
0.000432283
0.000479777
0.000548968
0.000579791
0.000472561
0.000517227
0.00057267
0.000603538
0.000509044
0.000550978
0.000595803
0.00062689
0.000650121
0.000543787
0.000580581
0.00061912
0.000650211
0.000675511
0.000575881
0.000608265
0.000642723
0.000673624
0.000700643
0.000606306
0.000635053
0.000666537
0.00069705
0.000725283
0.000635878
0.000661389
0.000690409
0.00072028
0.000749128
0.000664919
0.000687403
0.000714121
0.000743032
0.000771837
0.000693502
0.000713044
0.000737405
0.000764976
0.000793045
0.000721577
0.000738136
0.000759935
0.000785728
0.00081229
0.000749015
0.000762403
0.000781322
0.000804795
0.000828517
0.000775607
0.000785469
0.000801086
0.000821585
0.000841632
0.000800976
0.000806846
0.000818583
0.000835354
0.000851131
0.000824784
0.000825888
0.000832938
0.000845243
0.000856242
0.000846807
0.000841659
0.00084313
0.000850267
0.000856072
0.000866486
0.000853139
0.000848138
0.000849286
0.000849797
0.000882283
0.000860308
0.000846909
0.000841317
0.000836913
0.000893162
0.000862469
0.00083925
0.000826238
0.000817322
0.000898329
0.000858815
0.000827071
0.000804826
0.000790734
0.000897989
0.000850729
0.000811535
0.000781643
0.000761595
0.000894376
0.000841867
0.00079757
0.00076294
0.000736313
0.000892118
0.000837987
0.00079184
0.000754212
0.00072308
0.000895945
0.000843386
0.000797826
0.000758719
0.000724595
0.000905524
0.000855278
0.00081034
0.000769729
0.000731743
0.000911502
0.000862197
0.000815877
0.000772132
0.00072927
0.000894652
0.000846162
0.000797042
0.00074814
0.000699088
0.000838365
0.000787989
0.000734958
0.000680207
0.000624096
0.00164604
0.00152835
0.00140022
0.00126413
0.00112312
0.000354079
0.000296062
0.000252889
0.000226932
0.000206799
0.00055925
0.000508008
0.000459466
0.000419636
0.000391427
0.0003617
0.000306975
0.000318243
0.000405648
0.000460809
0.00027855
0.000495191
0.000630043
0.000302484
0.000637274
0.00084207
0.000321774
0.000795838
0.00107478
0.000333821
0.000933067
0.00127657
0.000342553
0.00104675
0.00143551
0.000358717
0.00112856
0.00154224
0.000389474
0.00119561
0.00162195
0.000443462
0.0012664
0.00168418
0.000394863
0.000705458
0.00142968
0.00175656
0.000829727
0.00104081
0.00157941
0.00180803
0.00121102
0.0013562
0.00169825
0.00183175
0.00150086
0.00159156
0.00177525
0.00182824
0.00169058
0.0017355
0.00181113
0.00180247
0.00179804
0.00180756
0.00181466
0.00176162
0.0016385
0.00185071
0.00183388
0.00179804
0.00171318
0.00156971
0.00187357
0.00183727
0.0017729
0.00166396
0.00150255
0.00188529
0.0018338
0.00174837
0.00161942
0.00144127
0.0018974
0.00183342
0.00173055
0.0015834
0.0013888
0.00191506
0.00184081
0.00172251
0.0015579
0.00134653
0.00193837
0.00185607
0.0017248
0.00154306
0.00131255
0.00196419
0.00187666
0.00173577
0.00153745
0.00127872
0.00198737
0.00189906
0.00175217
0.00153924
0.00125185
0.00200225
0.00191991
0.00176921
0.001547
0.00123277
0.0020066
0.00193491
0.00178417
0.00155847
0.00122096
0.0019993
0.00193871
0.00179889
0.00157134
0.00121846
0.0019813
0.00193314
0.0018124
0.00158607
0.00122888
0.00195587
0.00192155
0.00181975
0.00161159
0.00125711
0.00192773
0.00190884
0.00182632
0.00164948
0.00131108
0.00190278
0.00190096
0.00183792
0.00168914
0.00138685
0.00188682
0.00190251
0.00185849
0.0017341
0.00148346
0.00188215
0.00191309
0.00188521
0.00178135
0.00157249
0.00188257
0.00192307
0.00190617
0.00181884
0.00164072
0.00187209
0.00191558
0.00190531
0.00183185
0.00167908
0.00183344
0.00187675
0.00187152
0.0018102
0.00167879
0.00175722
0.00180257
0.00180358
0.00175264
0.00163788
0.00157707
0.00165662
0.00169436
0.0016582
0.00155748
0.00132651
0.00138274
0.00141723
0.00140901
0.00134606
0.000791519
0.000749556
0.000704319
0.000655949
0.000604511
0.000451582
0.000390243
0.000333504
0.000285478
0.000245599
0.000605907
0.000570471
0.000531873
0.000492221
0.000455404
0.000461819
0.000404455
0.00035301
0.000385198
0.00045525
0.000268622
0.000524935
0.000714737
0.000314296
0.000736141
0.00102955
0.00036182
0.000931116
0.0013371
0.000395238
0.00108064
0.00157645
0.000422768
0.00119534
0.00174556
0.000456603
0.00127511
0.00186465
0.000493538
0.00135145
0.0019566
0.000551384
0.00143394
0.0020323
0.000485374
0.000809838
0.00164609
0.00213251
0.000966156
0.00121812
0.00185747
0.00221322
0.00145494
0.00163143
0.00204219
0.00226715
0.00184552
0.00195171
0.00217783
0.00229411
0.00211407
0.00216198
0.00226309
0.00230056
0.00228404
0.00228849
0.00231099
0.00229524
0.00239059
0.00236399
0.00233729
0.00228561
0.00220522
0.00246222
0.00241306
0.00235477
0.00227707
0.00217463
0.00251694
0.00245122
0.00237115
0.00227263
0.00214875
0.0025643
0.00248679
0.00239006
0.00227357
0.00212771
0.00260798
0.00252287
0.00241253
0.00227987
0.00211183
0.00264794
0.00255806
0.0024389
0.00229071
0.00210092
0.00268219
0.00259034
0.00246712
0.00230459
0.00209367
0.0027082
0.0026169
0.00249379
0.00231969
0.00208942
0.00272395
0.00263475
0.00251222
0.00233669
0.00208697
0.00272859
0.00264242
0.00252218
0.00235124
0.00208563
0.00272235
0.0026397
0.00252265
0.00235617
0.00208947
0.00270631
0.00262734
0.0025137
0.00235161
0.00209699
0.00268198
0.00260642
0.00249615
0.00233898
0.00209902
0.00265041
0.0025776
0.00247041
0.00231783
0.00208883
0.00261133
0.00254046
0.00243622
0.0022892
0.00207411
0.00256259
0.00249309
0.00239281
0.00225403
0.00205619
0.00250029
0.00243263
0.00233874
0.00221188
0.00203401
0.00242064
0.00235674
0.00227236
0.00216094
0.00200575
0.00232303
0.0022652
0.00219218
0.00209722
0.00196474
0.00221514
0.00216453
0.00210188
0.00202019
0.0019052
0.00211804
0.00207541
0.00201929
0.0019431
0.00183412
0.00201174
0.00199998
0.00195579
0.00187667
0.00176166
0.00170642
0.00173138
0.00172506
0.00167957
0.0015895
0.000851015
0.000814747
0.000774308
0.000729501
0.000680151
0.000515306
0.00045647
0.000399528
0.00034588
0.000296751
0.000610579
0.000581816
0.000549892
0.000515301
0.000480135
0.000528961
0.000475794
0.000400629
0.000389037
0.000418725
0.000276182
0.000519487
0.000692444
0.000343442
0.000843474
0.00117104
0.000411504
0.00106259
0.00153491
0.000456501
0.00121067
0.00178261
0.000492469
0.00132225
0.00195183
0.000533118
0.00140305
0.00206483
0.000577098
0.00148605
0.00214849
0.000641897
0.00156935
0.00220947
0.000579128
0.000916385
0.00178593
0.00228689
0.00110167
0.00138684
0.00201433
0.00233869
0.00166156
0.0018461
0.00219713
0.00236354
0.00207676
0.00216239
0.00230916
0.00236332
0.00232637
0.00233629
0.00236239
0.00234826
0.00246132
0.00242136
0.00238325
0.00233031
0.00253621
0.00246556
0.00239374
0.00231746
0.00258652
0.00249714
0.00240618
0.00231359
0.00223046
0.00262937
0.00252839
0.00242512
0.00231934
0.00222018
0.0026703
0.00256232
0.00245047
0.00233345
0.00221769
0.00270868
0.00259726
0.00247971
0.00235355
0.00222137
0.00274134
0.0026296
0.00250917
0.00237623
0.00222991
0.00276469
0.00265538
0.00253497
0.00239841
0.00224148
0.00277607
0.00267127
0.00255335
0.00241665
0.00225367
0.0027746
0.00267547
0.00256193
0.00242762
0.00226068
0.00276091
0.00266777
0.00255978
0.00242948
0.00226153
0.00273659
0.00264921
0.00254709
0.00242195
0.00225677
0.00270348
0.00262119
0.00252463
0.00240537
0.00224522
0.00266304
0.00258484
0.00249333
0.00238015
0.00222581
0.00261555
0.00254049
0.00245376
0.00234695
0.00220009
0.00255969
0.0024874
0.002406
0.00230715
0.00217145
0.00249305
0.00242434
0.0023501
0.00226208
0.00214211
0.0024134
0.00235026
0.00228544
0.00221075
0.00210955
0.0023202
0.00226469
0.00221057
0.00214979
0.00206742
0.00221567
0.00216871
0.00212479
0.00207614
0.00200952
0.0021108
0.00207215
0.00203638
0.00199574
0.00193822
0.00203679
0.00200513
0.00197327
0.00193268
0.00187152
0.00200691
0.00198098
0.00194303
0.00188787
0.00180495
0.00177421
0.00178292
0.00176782
0.00172226
0.00163863
0.000928658
0.000894632
0.000854952
0.000809704
0.000759189
0.000555229
0.000500146
0.000446225
0.000393389
0.00034279
0.000610569
0.000583464
0.000553871
0.000522263
0.000490128
0.000570684
0.000522393
0.000438641
0.000414422
0.000428873
0.000298039
0.000556771
0.000759249
0.000381773
0.000985143
0.00135805
0.000458577
0.00121534
0.00175546
0.000508013
0.0013589
0.00200019
0.000547993
0.00146986
0.00215459
0.000594887
0.00154979
0.00224939
0.000645708
0.00163545
0.00231224
0.000717827
0.00169944
0.00234236
0.00052159
0.000666482
0.00102754
0.00194135
0.0023831
0.00125498
0.00157504
0.00217268
0.00240307
0.00188707
0.00206216
0.00232505
0.00238954
0.00229263
0.00233488
0.00238384
0.00235028
0.00248202
0.00243812
0.00238395
0.0023045
0.00255379
0.00246375
0.00236722
0.00226857
0.00258432
0.00247187
0.00235843
0.0022501
0.00261021
0.00248696
0.00236555
0.00224989
0.00264124
0.00251295
0.00238697
0.00226465
0.00215534
0.00267487
0.00254528
0.00241719
0.00228962
0.00216842
0.0027047
0.00257721
0.00245
0.00231985
0.00218906
0.00272475
0.00260262
0.00247963
0.00235052
0.00221325
0.00273113
0.0026171
0.0025013
0.0023769
0.0022371
0.00272223
0.00261803
0.00251149
0.00239488
0.00225659
0.00269892
0.0026053
0.00250921
0.00240234
0.002269
0.00266346
0.0025804
0.00249508
0.00239871
0.00227321
0.00261837
0.00254531
0.00247041
0.00238464
0.00226895
0.0025658
0.00250185
0.00243664
0.0023612
0.00225648
0.0025074
0.00245147
0.00239518
0.00232972
0.00223687
0.00244408
0.00239523
0.00234741
0.002292
0.00221224
0.00237576
0.00233333
0.00229375
0.00224861
0.00218263
0.00230207
0.00226578
0.00223423
0.00219923
0.00214692
0.00222305
0.00219291
0.00216895
0.0021433
0.00210349
0.00213956
0.00211548
0.00209824
0.00208048
0.00205091
0.00205271
0.00203452
0.00202315
0.00201164
0.00198957
0.00197232
0.00196041
0.001954
0.00194614
0.00192697
0.00193464
0.00192965
0.00192584
0.00191551
0.00188869
0.00195323
0.00194894
0.00193891
0.00191446
0.00186249
0.00175216
0.00177249
0.00177332
0.00174507
0.00167649
0.00102003
0.000986888
0.00094603
0.00089813
0.000844294
0.000578393
0.000526294
0.000475215
0.000424825
0.00037629
0.000612123
0.000585311
0.000556661
0.000527126
0.000498197
0.00059376
0.000548461
0.00046587
0.0004492
0.000473179
0.000316101
0.000723991
0.000982255
0.00042049
0.00116202
0.00161473
0.000497699
0.0013868
0.00200051
0.000547895
0.00152358
0.00221705
0.000591833
0.00163167
0.00234223
0.000643982
0.00170907
0.00241094
0.00070111
0.00178675
0.00244381
0.00077999
0.00184134
0.00244763
0.000621051
0.000745619
0.0011496
0.00210768
0.00246792
0.00137287
0.00142728
0.00178341
0.00233049
0.00245584
0.0021261
0.00227466
0.00243707
0.00240231
0.00248856
0.00247636
0.00243529
0.00232805
0.00259777
0.00250327
0.00238914
0.00226187
0.0026093
0.00248285
0.00235055
0.00222102
0.00260968
0.0024733
0.00233813
0.00220818
0.00262405
0.00248524
0.00235014
0.00221885
0.00264942
0.00251135
0.00237771
0.00224574
0.00267579
0.00254122
0.00241126
0.0022809
0.00214665
0.00269408
0.00256614
0.00244301
0.00231781
0.00218312
0.00269869
0.00258031
0.00246702
0.00235082
0.0022206
0.00268756
0.00258095
0.00247963
0.00237529
0.00225376
0.00266103
0.00256722
0.00247869
0.00238757
0.00227788
0.00262158
0.00254073
0.00246498
0.00238716
0.00229087
0.002572
0.00250375
0.00244021
0.00237501
0.00229259
0.00251439
0.00245811
0.00240606
0.00235245
0.00228349
0.00244998
0.00240486
0.00236354
0.00232044
0.0022637
0.00237994
0.00234495
0.00231354
0.00228007
0.00223409
0.00230548
0.00227954
0.00225756
0.00223345
0.0021976
0.00222804
0.00220989
0.00219661
0.00218154
0.00215519
0.00215009
0.00213842
0.00213269
0.00212578
0.00210803
0.00207456
0.00206808
0.0020685
0.00206848
0.00205793
0.00200298
0.00200054
0.00200572
0.00201141
0.00200663
0.00193384
0.00193529
0.00194487
0.00195552
0.00195572
0.00187617
0.00188257
0.00189589
0.00190931
0.00191171
0.00187223
0.00188473
0.00189884
0.00190861
0.00190379
0.00192884
0.00195046
0.00196616
0.00196788
0.0019423
0.00172296
0.00177031
0.00180109
0.0018012
0.0017545
0.00112244
0.00108905
0.00104541
0.00099316
0.000934423
0.000590037
0.000539373
0.000489817
0.000441693
0.00039654
0.000614733
0.000588014
0.000560312
0.000533525
0.000509465
0.000603513
0.000558404
0.000485311
0.000495834
0.00055783
0.000343011
0.000951365
0.00129113
0.000455774
0.00136559
0.00190729
0.000528232
0.00156866
0.0022432
0.000579493
0.00169241
0.00241123
0.000626443
0.00179614
0.00249916
0.000682769
0.00186829
0.00254062
0.000745245
0.00193586
0.00255667
0.000831834
0.00199615
0.00254929
0.000713953
0.000818594
0.00128629
0.00228564
0.00255448
0.00154274
0.00161794
0.00200714
0.00248916
0.00251093
0.00231963
0.00236711
0.0024766
0.00254089
0.0024207
0.00265888
0.00259406
0.00248275
0.00232211
0.0026879
0.0025575
0.0024073
0.00225026
0.00265749
0.002513
0.00236429
0.00221684
0.00264435
0.00250046
0.00235761
0.00221582
0.00265368
0.00251275
0.0023749
0.00223706
0.00267217
0.00253536
0.00240307
0.00227032
0.00268767
0.00255698
0.00243205
0.00230688
0.00269243
0.00257023
0.00245506
0.0023401
0.00221594
0.00268327
0.00257149
0.0024676
0.00236531
0.00225365
0.00266021
0.00256026
0.00246826
0.00237942
0.00228246
0.00262483
0.00253713
0.00245661
0.00238019
0.00229821
0.00257961
0.00250415
0.00243453
0.00236915
0.00230051
0.00252624
0.00246288
0.00240365
0.00234798
0.00229052
0.00246503
0.00241365
0.00236478
0.00231791
0.00226943
0.00239539
0.00235603
0.00231795
0.00227953
0.00223828
0.00231796
0.00229043
0.00226339
0.00223386
0.00219906
0.00223421
0.00221787
0.00220246
0.00218322
0.00215569
0.0021475
0.00214089
0.00213689
0.00212897
0.00210954
0.00206362
0.00206473
0.00207079
0.0020738
0.00206327
0.00198757
0.00199395
0.00200809
0.00202111
0.00202017
0.00192016
0.00192972
0.00194969
0.00197197
0.00198097
0.00185744
0.00187027
0.00189572
0.00192591
0.00194437
0.00181132
0.0018281
0.00185731
0.00189124
0.00191499
0.00182967
0.00184951
0.00187593
0.00190471
0.00192312
0.00191615
0.00195297
0.00198151
0.00200669
0.00201293
0.00169816
0.0017869
0.00186536
0.00191447
0.00191393
0.00123219
0.00119791
0.00115086
0.00109445
0.00103212
0.000594458
0.000543559
0.000493931
0.000447272
0.000405918
0.000617732
0.000591308
0.000565418
0.000544425
0.000530906
0.000604228
0.000556244
0.00050129
0.000573831
0.00071969
0.000379302
0.0012108
0.00164287
0.000486395
0.00157699
0.00219841
0.000553403
0.00174582
0.00245726
0.000604668
0.00185287
0.00256813
0.000653875
0.00194618
0.00262538
0.000712903
0.00201959
0.00265577
0.000780464
0.00209333
0.00266743
0.000876625
0.00216687
0.00265888
0.000801291
0.000887918
0.00143781
0.00247646
0.00265287
0.00172079
0.00182198
0.00223919
0.00265222
0.00257902
0.00255778
0.00260063
0.00266736
0.00264684
0.00245812
0.00288587
0.00280942
0.00270328
0.00254397
0.00234747
0.00277418
0.0026248
0.00245654
0.00228091
0.00272149
0.00257248
0.00241751
0.00225816
0.00270254
0.00255979
0.00241445
0.00226466
0.0027049
0.00256712
0.00242906
0.00228724
0.00271277
0.00257997
0.00244896
0.00231569
0.00271656
0.00258977
0.00246638
0.00234259
0.0027116
0.00259213
0.00247701
0.00236337
0.00269654
0.00258548
0.00247881
0.00237521
0.00227174
0.00267183
0.00256992
0.00247153
0.00237707
0.00228556
0.00263857
0.00254621
0.00245573
0.00236898
0.00228694
0.00259759
0.00251521
0.00243266
0.00235258
0.00227752
0.00254846
0.00247683
0.00240291
0.00232938
0.00225957
0.00248938
0.00242981
0.00236602
0.00229997
0.00223476
0.00241749
0.00237224
0.00232064
0.0022639
0.00220338
0.0023329
0.00230285
0.00226596
0.00222141
0.00216743
0.00223709
0.00222219
0.00220248
0.00217381
0.00213044
0.00213545
0.00213371
0.00213215
0.00212223
0.0020938
0.00203691
0.00204513
0.00205927
0.00206878
0.00205846
0.0019479