/*--------------------------------*- C++ -*----------------------------------*\
| =========                 |                                                 |
| \\      /  F ield         | OpenFOAM: The Open Source CFD Toolbox           |
|  \\    /   O peration     | Version:  2.3.1                                 |
|   \\  /    A nd           | Web:      www.OpenFOAM.org                      |
|    \\/     M anipulation  |                                                 |
\*---------------------------------------------------------------------------*/
FoamFile
{
    version     2.0;
    format      ascii;
    class       volScalarField;
    location    "600";
    object      p;
}
// * * * * * * * * * * * * * * * * * * * * * * * * * * * * * * * * * * * * * //

dimensions      [0 2 -2 0 0 0 0];

internalField   nonuniform List<scalar> 
6852
(
77.8648
77.8464
77.8336
77.8271
77.8526
77.8349
77.8239
77.8198
77.8492
77.825
77.8119
77.8088
77.8825
77.8392
77.8117
77.8011
77.8944
77.8461
77.8113
77.7944
77.9013
77.8489
77.8096
77.7885
77.8923
77.8384
77.7982
77.7758
77.8723
77.8179
77.7789
77.7575
77.7536
77.8441
77.7909
77.7546
77.7357
77.7336
77.8069
77.7576
77.7265
77.7115
77.7121
77.7643
77.7217
77.6974
77.687
77.6906
77.7091
77.6813
77.6673
77.6631
77.6699
77.6642
77.6486
77.6421
77.6428
77.6517
77.6302
77.6229
77.6218
77.6259
77.636
77.6056
77.6036
77.6062
77.6125
77.6228
77.5882
77.5897
77.5945
77.6019
77.612
77.576
77.5797
77.5857
77.5935
77.6031
77.5674
77.5724
77.579
77.5868
77.5958
77.561
77.5669
77.5738
77.5816
77.59
77.5563
77.5628
77.57
77.5776
77.5854
77.5528
77.5598
77.5671
77.5745
77.5818
77.5502
77.5577
77.5651
77.5724
77.5792
77.5485
77.5564
77.5639
77.571
77.5775
77.5476
77.5557
77.5633
77.5703
77.5767
77.5474
77.5558
77.5634
77.5704
77.5766
77.5478
77.5564
77.5642
77.5711
77.5773
77.5488
77.5577
77.5655
77.5725
77.5787
77.5504
77.5595
77.5674
77.5744
77.5806
77.5526
77.5618
77.5698
77.5768
77.583
77.5552
77.5645
77.5726
77.5796
77.5858
77.5583
77.5677
77.5757
77.5827
77.5887
77.5619
77.5712
77.5792
77.586
77.5921
77.5659
77.5751
77.583
77.5899
77.5959
77.5705
77.5797
77.5876
77.5944
77.6001
77.576
77.5853
77.593
77.5994
77.6045
77.5825
77.5915
77.5988
77.6045
77.6087
77.59
77.5984
77.6049
77.6097
77.6128
77.5985
77.6061
77.6115
77.6151
77.617
77.608
77.6146
77.6188
77.6209
77.6213
77.6177
77.6233
77.6264
77.6269
77.6259
77.6251
77.6303
77.6328
77.6324
77.6304
76.8544
76.8351
76.8197
76.8109
76.8079
76.8172
76.8038
76.7989
76.8
76.8019
76.7819
76.7766
76.7811
76.8251
76.7843
76.7657
76.7642
76.8395
76.7912
76.7645
76.7552
76.8459
76.7932
76.7622
76.7481
76.8359
76.7815
76.7498
76.7344
76.8172
76.7619
76.731
76.7162
76.7899
76.7351
76.7067
76.6945
76.7009
76.7533
76.7022
76.6787
76.671
76.6804
76.712
76.6669
76.6504
76.6482
76.6606
76.6552
76.6291
76.6229
76.6273
76.6423
76.6167
76.603
76.6032
76.6112
76.6268
76.5893
76.5841
76.5889
76.5989
76.6138
76.5717
76.5718
76.5788
76.5891
76.603
76.5606
76.5638
76.5715
76.5814
76.5941
76.5533
76.5582
76.5657
76.5751
76.5867
76.548
76.5536
76.561
76.5701
76.5807
76.5437
76.5498
76.5574
76.5661
76.5757
76.5402
76.5468
76.5545
76.5629
76.5716
76.5374
76.5447
76.5524
76.5605
76.5685
76.5355
76.5432
76.551
76.5588
76.5662
76.5342
76.5423
76.5502
76.5577
76.5647
76.5337
76.5421
76.55
76.5574
76.564
76.5337
76.5425
76.5505
76.5576
76.564
76.5344
76.5434
76.5514
76.5585
76.5647
76.5357
76.5448
76.5528
76.5598
76.566
76.5376
76.5468
76.5548
76.5617
76.5678
76.5399
76.5492
76.5572
76.5641
76.5702
76.5427
76.552
76.56
76.5669
76.5731
76.5459
76.5552
76.5631
76.5701
76.5764
76.5496
76.5588
76.5667
76.5738
76.5803
76.5538
76.563
76.5711
76.5782
76.5844
76.5589
76.5682
76.5761
76.5829
76.5885
76.5649
76.574
76.5814
76.5875
76.5925
76.5714
76.5799
76.5868
76.5922
76.5963
76.5783
76.5863
76.5926
76.5971
76.6002
76.5862
76.5936
76.5989
76.6023
76.604
76.5954
76.6019
76.6061
76.608
76.6082
76.6048
76.6104
76.6135
76.614
76.6127
76.6143
76.6197
76.6221
76.6212
76.6185
75.8108
75.7963
75.7862
75.7833
75.7858
75.7884
75.7755
75.7678
75.7692
75.776
75.751
75.7372
75.7396
75.7511
75.7656
75.7261
75.7203
75.7279
75.7854
75.7346
75.7188
75.7178
75.7927
75.7347
75.7135
75.7071
75.7808
75.7207
75.6991
75.6913
75.7629
75.7005
75.6793
75.6715
75.736
75.6728
75.654
75.6486
75.6985
75.6391
75.6256
75.6245
75.6395
75.6565
75.6037
75.5979
75.6018
75.6198
75.5913
75.5688
75.5732
75.5827
75.6032
75.5625
75.5521
75.5584
75.5701
75.5911
75.5444
75.5412
75.5493
75.5621
75.5822
75.5347
75.5352
75.5439
75.5572
75.5756
75.5298
75.5322
75.5409
75.5539
75.5705
75.5265
75.5305
75.5396
75.5517
75.5666
75.5245
75.5298
75.5386
75.55
75.5633
75.5233
75.5293
75.538
75.5486
75.5605
75.5223
75.5289
75.5374
75.5475
75.5581
75.5213
75.5284
75.5371
75.5465
75.5561
75.5205
75.5282
75.5369
75.5459
75.5545
75.5199
75.5282
75.5369
75.5455
75.5535
75.5197
75.5285
75.5373
75.5455
75.553
75.5201
75.5292
75.538
75.5459
75.553
75.5209
75.5304
75.5391
75.5468
75.5536
75.5223
75.532
75.5407
75.5482
75.5548
75.5242
75.5341
75.5427
75.5501
75.5566
75.5266
75.5365
75.5451
75.5524
75.5589
75.5295
75.5394
75.5479
75.5552
75.5616
75.5329
75.5428
75.5511
75.5584
75.5648
75.5368
75.5466
75.5548
75.562
75.5683
75.5413
75.5509
75.5591
75.5661
75.5722
75.5465
75.5559
75.5639
75.5707
75.5764
75.5525
75.5617
75.5694
75.5757
75.5808
75.5597
75.5685
75.5756
75.581
75.5851
75.568
75.5761
75.5822
75.5865
75.5893
75.5771
75.5843
75.5893
75.5923
75.5934
75.5873
75.5936
75.5973
75.5986
75.5979
75.5976
75.6031
75.6057
75.6054
75.6029
75.6109
75.6161
75.6179
75.6159
75.6112
74.7794
74.7694
74.7628
74.7638
74.7691
74.7604
74.7509
74.7447
74.7497
74.7594
74.7336
74.7214
74.7091
74.718
74.7332
74.7217
74.6806
74.6887
74.7047
74.7359
74.6812
74.6791
74.6878
74.7412
74.6769
74.6683
74.6716
74.726
74.6585
74.6503
74.652
74.7075
74.6363
74.6287
74.6303
74.6801
74.6074
74.6019
74.6072
74.6396
74.5723
74.5728
74.5843
74.5935
74.5359
74.5474
74.5642
74.5908
74.5178
74.5077
74.5282
74.5485
74.5755
74.5043
74.5053
74.5217
74.5401
74.5653
74.5003
74.5053
74.5191
74.536
74.5589
74.502
74.5073
74.5187
74.534
74.5548
74.5048
74.5097
74.5192
74.5334
74.552
74.5067
74.5112
74.5201
74.5334
74.5499
74.5075
74.5122
74.521
74.5334
74.5481
74.5074
74.5128
74.5216
74.5333
74.5465
74.5068
74.5131
74.5221
74.5331
74.5449
74.5062
74.5132
74.5224
74.5329
74.5436
74.5055
74.5134
74.5227
74.5328
74.5425
74.5051
74.5137
74.5232
74.5328
74.5418
74.5049
74.5143
74.5239
74.5332
74.5415
74.5053
74.5152
74.5249
74.5339
74.5417
74.5062
74.5166
74.5263
74.5349
74.5424
74.5077
74.5184
74.528
74.5365
74.5437
74.5098
74.5207
74.5302
74.5385
74.5455
74.5125
74.5234
74.5329
74.5409
74.5478
74.5157
74.5266
74.5359
74.5438
74.5505
74.5195
74.5303
74.5394
74.5471
74.5537
74.5239
74.5345
74.5434
74.5509
74.5573
74.529
74.5393
74.5478
74.5551
74.5611
74.5348
74.5447
74.5528
74.5596
74.5651
74.5413
74.5507
74.5584
74.5645
74.5692
74.5487
74.5575
74.5644
74.5696
74.5733
74.5571
74.5652
74.5711
74.5752
74.5776
74.5666
74.5737
74.5786
74.5812
74.5819
74.5773
74.5834
74.587
74.5878
74.5867
74.5883
74.5937
74.5961
74.5954
74.5922
74.6049
74.6099
74.6112
74.6083
74.6024
73.769
73.7589
73.7512
73.7527
73.758
73.7555
73.7455
73.736
73.7416
73.7507
73.7318
73.7201
73.6995
73.7111
73.7259
73.7336
73.7097
73.6538
73.6726
73.6924
73.6983
73.6427
73.6499
73.6666
73.6983
73.6331
73.6326
73.6458
73.6783
73.6091
73.6128
73.6253
73.6587
73.5854
73.5936
73.6054
73.631
73.5581
73.5716
73.5852
73.5866
73.5245
73.5487
73.5638
73.5344
73.492
73.5264
73.5454
73.4543
73.4677
73.5053
73.5315
73.5622
73.4627
73.4765
73.5023
73.5261
73.5537
73.4668
73.4825
73.5025
73.5235
73.5484
73.4768
73.4889
73.5041
73.5225
73.545
73.4848
73.4939
73.5062
73.5227
73.5426
73.4897
73.4971
73.5079
73.5231
73.5408
73.4924
73.4991
73.5094
73.5234
73.5391
73.4936
73.5003
73.5105
73.5235
73.5375
73.4939
73.5011
73.5112
73.5234
73.536
73.4938
73.5016
73.5117
73.5231
73.5346
73.4935
73.502
73.5121
73.5229
73.5334
73.4932
73.5023
73.5125
73.5229
73.5325
73.4931
73.5029
73.5131
73.523
73.5319
73.4933
73.5037
73.514
73.5236
73.5319
73.4941
73.5049
73.5152
73.5245
73.5324
73.4954
73.5066
73.5169
73.5259
73.5334
73.4974
73.5088
73.519
73.5277
73.535
73.5
73.5115
73.5216
73.5301
73.5371
73.5032
73.5148
73.5246
73.5329
73.5397
73.5072
73.5186
73.5282
73.5361
73.5426
73.5119
73.523
73.5322
73.5397
73.546
73.5173
73.5279
73.5366
73.5438
73.5495
73.5233
73.5334
73.5416
73.5481
73.5533
73.53
73.5395
73.547
73.5528
73.5571
73.5374
73.5461
73.5528
73.5577
73.5611
73.5455
73.5534
73.5592
73.563
73.5651
73.5542
73.5613
73.5659
73.5684
73.5691
73.5636
73.5697
73.5732
73.5742
73.5731
73.5733
73.5786
73.581
73.5805
73.5779
73.5842
73.5894
73.5912
73.5892
73.5849
72.7637
72.7524
72.7425
72.744
72.7485
72.7501
72.7381
72.7247
72.7326
72.7414
72.7266
72.7126
72.6822
72.7034
72.7181
72.7339
72.6965
72.5775
72.6574
72.6822
72.6921
72.6456
72.536
72.6312
72.65
72.6444
72.5213
72.6159
72.626
72.6305
72.5084
72.599
72.6064
72.6209
72.5002
72.5823
72.5896
72.6047
72.489
72.5641
72.5728
72.5648
72.477
72.5425
72.5553
72.4914
72.4679
72.5184
72.5392
72.3147
72.434
72.4899
72.524
72.4167
72.4591
72.4914
72.5198
72.5487
72.441
72.4691
72.4938
72.5178
72.5433
72.46
72.4781
72.4967
72.517
72.5397
72.4715
72.4844
72.4992
72.5168
72.5369
72.4781
72.4882
72.5009
72.5167
72.5345
72.4815
72.4904
72.5019
72.5163
72.5323
72.483
72.4915
72.5024
72.5158
72.5301
72.4833
72.4918
72.5025
72.515
72.528
72.483
72.4917
72.5024
72.5142
72.526
72.4823
72.4915
72.5022
72.5135
72.5243
72.4816
72.4914
72.5021
72.5129
72.5229
72.4811
72.4915
72.5022
72.5126
72.5219
72.481
72.4919
72.5027
72.5128
72.5215
72.4815
72.4928
72.5036
72.5134
72.5216
72.4826
72.4943
72.505
72.5145
72.5224
72.4843
72.4963
72.507
72.5161
72.5237
72.4868
72.4989
72.5094
72.5183
72.5255
72.4901
72.5022
72.5124
72.5209
72.5278
72.4941
72.506
72.5159
72.524
72.5305
72.4989
72.5104
72.5198
72.5275
72.5336
72.5043
72.5153
72.5242
72.5313
72.5369
72.5104
72.5207
72.5289
72.5354
72.5403
72.5169
72.5264
72.534
72.5397
72.5439
72.5238
72.5326
72.5394
72.5443
72.5476
72.5312
72.5392
72.5452
72.5491
72.5514
72.5389
72.5462
72.5513
72.5541
72.5551
72.5472
72.5537
72.5577
72.5593
72.5588
72.5558
72.5614
72.5644
72.5645
72.563
72.5639
72.5691
72.5714
72.5705
72.5678
71.7319
71.7459
71.6866
71.6975
71.6888
71.6988
71.6767
71.6593
71.6424
71.6062
71.6074
70.7287
70.7859
70.6499
70.7022
70.6617
70.7111
70.6392
70.6901
70.6726
70.6562
70.6134
70.6592
-7.94481
-7.94465
-7.9444
-7.94418
-7.94406
-7.94477
-7.94458
-7.94435
-7.94421
-7.94411
-7.94483
-7.94471
-7.94443
-7.94429
-7.94417
-7.94419
-7.94413
-7.94409
-7.9438
-7.94371
-7.94374
-7.94325
-7.94302
-7.94307
-7.94267
-7.94225
-7.94228
-7.94216
-7.94158
-7.94158
-7.94176
-7.94105
-7.94102
-7.94152
-7.9407
-7.94067
-7.94138
-7.94049
-7.9406
-7.94244
-7.94165
-7.94073
-7.9409
-7.94181
-7.9413
-7.94085
-7.94139
-7.94139
-7.94123
-7.94131
-7.94223
-7.94133
-7.94157
-7.94211
-7.94338
-7.9418
-7.94233
-7.94325
-7.94475
-7.94655
-7.94267
-7.94343
-7.94461
-7.94622
-7.948
-7.9438
-7.94474
-7.94608
-7.94775
-7.94947
-7.9451
-7.94615
-7.94759
-7.94928
-7.95094
-7.94648
-7.94761
-7.94911
-7.9508
-7.95239
-7.94792
-7.94909
-7.95062
-7.9523
-7.95382
-7.9494
-7.95059
-7.95212
-7.95378
-7.95524
-7.95094
-7.95211
-7.95363
-7.95525
-7.95664
-7.95255
-7.95366
-7.95513
-7.9567
-7.958
-7.95425
-7.95526
-7.95664
-7.95811
-7.95931
-7.95604
-7.95689
-7.95813
-7.95946
-7.96054
-7.9579
-7.95855
-7.95958
-7.96073
-7.96168
-7.95981
-7.9602
-7.96095
-7.9619
-7.9627
-7.96172
-7.9618
-7.96221
-7.96292
-7.96356
-7.96356
-7.96327
-7.96335
-7.96378
-7.96428
-7.9653
-7.96455
-7.96431
-7.96446
-7.96487
-7.96691
-7.96564
-7.96505
-7.96499
-7.96528
-7.96835
-7.96659
-7.96558
-7.96533
-7.96557
-7.96966
-7.96746
-7.966
-7.96552
-7.96576
-7.97085
-7.9683
-7.96644
-7.96564
-7.96584
-7.972
-7.96919
-7.96701
-7.96586
-7.96597
-7.97304
-7.97016
-7.96782
-7.96641
-7.9663
-7.9739
-7.97113
-7.96882
-7.96729
-7.9669
-7.974
-7.97153
-7.9694
-7.96786
-7.9672
-7.97317
-7.97085
-7.96885
-7.96734
-7.96654
-7.97186
-7.96953
-7.96755
-7.96607
-7.96528
-8.95469
-8.95456
-8.95442
-8.95431
-8.95423
-8.95461
-8.95444
-8.95425
-8.95421
-8.95422
-8.95472
-8.95461
-8.95441
-8.95445
-8.95443
-8.95444
-8.95448
-8.95448
-8.95421
-8.95424
-8.9543
-8.95376
-8.95373
-8.95385
-8.95328
-8.95318
-8.95334
-8.95289
-8.95272
-8.95291
-8.95258
-8.95236
-8.95258
-8.95244
-8.95219
-8.95247
-8.95241
-8.95219
-8.95258
-8.95359
-8.95282
-8.95262
-8.95303
-8.9529
-8.95262
-8.95288
-8.95361
-8.9527
-8.95285
-8.95347
-8.95448
-8.95287
-8.9534
-8.9543
-8.95556
-8.95347
-8.95427
-8.95538
-8.95681
-8.95442
-8.95537
-8.95663
-8.95816
-8.95977
-8.95557
-8.95663
-8.95799
-8.95957
-8.96115
-8.95686
-8.95797
-8.9594
-8.961
-8.96255
-8.95823
-8.95938
-8.96084
-8.96245
-8.96396
-8.95968
-8.96084
-8.96232
-8.96392
-8.96537
-8.96119
-8.96235
-8.96382
-8.9654
-8.96677
-8.96278
-8.96391
-8.96534
-8.96689
-8.96816
-8.96445
-8.96552
-8.96687
-8.96836
-8.96953
-8.96619
-8.96718
-8.96842
-8.9698
-8.97085
-8.968
-8.96886
-8.96996
-8.97117
-8.9721
-8.96987
-8.97054
-8.97144
-8.97243
-8.97323
-8.97177
-8.97215
-8.97282
-8.97359
-8.9742
-8.97366
-8.97366
-8.97404
-8.97459
-8.97499
-8.97548
-8.97504
-8.97506
-8.97537
-8.97565
-8.97717
-8.97626
-8.97586
-8.97595
-8.97615
-8.97871
-8.97731
-8.9765
-8.97634
-8.97647
-8.98011
-8.97824
-8.97702
-8.97657
-8.9767
-8.98141
-8.97915
-8.97753
-8.97681
-8.97692
-8.9827
-8.98014
-8.9782
-8.97719
-8.97719
-8.98405
-8.98132
-8.97915
-8.97788
-8.97769
-8.98539
-8.98267
-8.98039
-8.97892
-8.97848
-8.9864
-8.98389
-8.9817
-8.98012
-8.97939
-8.98644
-8.98422
-8.98221
-8.98062
-8.97966
-8.98506
-8.98294
-8.98103
-8.97947
-8.97839
-8.98256
-8.98035
-8.97837
-8.97676
-8.97569
-9.96467
-9.96456
-9.96447
-9.96441
-9.96436
-9.96462
-9.9645
-9.96439
-9.96435
-9.96434
-9.96474
-9.96466
-9.96461
-9.96468
-9.96467
-9.96484
-9.96483
-9.9648
-9.96459
-9.96464
-9.96468
-9.96423
-9.96426
-9.9644
-9.96385
-9.96386
-9.96408
-9.96358
-9.96358
-9.96387
-9.96337
-9.96338
-9.96375
-9.96335
-9.96339
-9.96386
-9.96339
-9.96356
-9.96415
-9.96474
-9.96397
-9.96421
-9.96481
-9.964
-9.9639
-9.96462
-9.96551
-9.96401
-9.96439
-9.96537
-9.96648
-9.96435
-9.96511
-9.96629
-9.96759
-9.96508
-9.96608
-9.9674
-9.96881
-9.96606
-9.96721
-9.96861
-9.97011
-9.96721
-9.96845
-9.9699
-9.97144
-9.97299
-9.96848
-9.96976
-9.97125
-9.97282
-9.97435
-9.96984
-9.97114
-9.97264
-9.97422
-9.97574
-9.97128
-9.97258
-9.97409
-9.97566
-9.97715
-9.9728
-9.97409
-9.97559
-9.97713
-9.97857
-9.97443
-9.97567
-9.97713
-9.97863
-9.97996
-9.97616
-9.9773
-9.97869
-9.98012
-9.98131
-9.97799
-9.97897
-9.98027
-9.98156
-9.98259
-9.9799
-9.98069
-9.9818
-9.98291
-9.98381
-9.98187
-9.98241
-9.98322
-9.98415
-9.98488
-9.98387
-9.98407
-9.98455
-9.98523
-9.98575
-9.98585
-9.98564
-9.98574
-9.98606
-9.98643
-9.98776
-9.98708
-9.98674
-9.98669
-9.98692
-9.98956
-9.98837
-9.98755
-9.98716
-9.98718
-9.99123
-9.98953
-9.98824
-9.98749
-9.98728
-9.9928
-9.99063
-9.9889
-9.9878
-9.9874
-9.99433
-9.99179
-9.98967
-9.98825
-9.98767
-9.99595
-9.99315
-9.99073
-9.98904
-9.98826
-9.99773
-9.99483
-9.99225
-9.99034
-9.98935
-9.99959
-9.9968
-9.99421
-9.99217
-9.99098
-10.0012
-9.99872
-9.99632
-9.99426
-9.99284
-10.0018
-9.99965
-9.99751
-9.99553
-9.99393
-10.0003
-9.99844
-9.99649
-9.99458
-9.99285
-9.99719
-9.9952
-9.99316
-9.99116
-9.98935
-10.9748
-10.9747
-10.9746
-10.9745
-10.9745
-10.9748
-10.9747
-10.9746
-10.9745
-10.9744
-10.9749
-10.9749
-10.975
-10.9749
-10.9748
-10.9753
-10.9751
-10.975
-10.975
-10.975
-10.975
-10.9747
-10.9747
-10.9748
-10.9745
-10.9745
-10.9747
-10.9743
-10.9744
-10.9747
-10.9742
-10.9743
-10.9748
-10.9744
-10.9745
-10.9751
-10.9745
-10.9749
-10.9755
-10.9763
-10.9754
-10.9758
-10.9765
-10.9753
-10.9753
-10.9763
-10.9773
-10.9755
-10.976
-10.9772
-10.9784
-10.9759
-10.9768
-10.9781
-10.9795
-10.9766
-10.9778
-10.9792
-10.9807
-10.9776
-10.9789
-10.9804
-10.982
-10.9787
-10.9801
-10.9816
-10.9833
-10.9799
-10.9813
-10.9829
-10.9846
-10.9861
-10.9812
-10.9826
-10.9843
-10.9859
-10.9874
-10.9826
-10.9841
-10.9857
-10.9873
-10.9888
-10.9842
-10.9856
-10.9871
-10.9888
-10.9902
-10.9858
-10.9872
-10.9887
-10.9903
-10.9915
-10.9876
-10.9888
-10.9903
-10.9917
-10.9929
-10.9896
-10.9906
-10.9918
-10.9931
-10.9941
-10.9916
-10.9924
-10.9934
-10.9944
-10.9953
-10.9938
-10.9942
-10.9949
-10.9956
-10.9962
-10.996
-10.996
-10.9962
-10.9966
-10.9969
-10.9982
-10.9977
-10.9975
-10.9974
-10.9974
-11.0003
-10.9994
-10.9986
-10.998
-10.9977
-11.0024
-11.0009
-10.9996
-10.9986
-10.9979
-11.0044
-11.0024
-11.0006
-10.9991
-10.9981
-11.0064
-11.004
-11.0016
-10.9997
-10.9984
-11.0085
-11.0057
-11.003
-11.0006
-10.999
-11.0107
-11.0077
-11.0047
-11.0021
-11.0002
-11.0131
-11.0101
-11.007
-11.0042
-11.0021
-11.0155
-11.0128
-11.0098
-11.0069
-11.0046
-11.0178
-11.0154
-11.0128
-11.01
-11.0076
-11.0189
-11.017
-11.0147
-11.0122
-11.0097
-11.0179
-11.0162
-11.0142
-11.0119
-11.0094
-11.0146
-11.0129
-11.0108
-11.0083
-11.0057
-11.985
-11.9849
-11.9848
-11.9846
-11.9845
-11.9851
-11.9849
-11.9849
-11.9846
-11.9845
-11.9852
-11.9852
-11.9852
-11.9849
-11.9848
-11.9855
-11.9851
-11.985
-11.9852
-11.9851
-11.9851
-11.9851
-11.9851
-11.9851
-11.9849
-11.985
-11.9852
-11.9849
-11.985
-11.9854
-11.9849
-11.9851
-11.9856
-11.9853
-11.9856
-11.9862
-11.9853
-11.986
-11.9868
-11.9865
-11.9882
-11.9868
-11.9873
-11.988
-11.9869
-11.9868
-11.9879
-11.9889
-11.987
-11.9876
-11.9889
-11.9901
-11.9874
-11.9884
-11.9899
-11.9913
-11.9882
-11.9894
-11.991
-11.9925
-11.9891
-11.9905
-11.9921
-11.9937
-11.9902
-11.9916
-11.9932
-11.9949
-11.9913
-11.9928
-11.9945
-11.9962
-11.9926
-11.9941
-11.9958
-11.9975
-11.9989
-11.994
-11.9955
-11.9971
-11.9988
-12.0002
-11.9955
-11.997
-11.9986
-12.0002
-12.0015
-11.9973
-11.9986
-12.0001
-12.0017
-12.0028
-11.9992
-12.0004
-12.0017
-12.0031
-12.0041
-12.0013
-12.0023
-12.0033
-12.0044
-12.0053
-12.0037
-12.0042
-12.0049
-12.0057
-12.0063
-12.0061
-12.0063
-12.0065
-12.0068
-12.0071
-12.0087
-12.0084
-12.0081
-12.0079
-12.0077
-12.0113
-12.0105
-12.0096
-12.0088
-12.0082
-12.014
-12.0126
-12.0111
-12.0097
-12.0086
-12.0166
-12.0148
-12.0127
-12.0107
-12.009
-12.0193
-12.017
-12.0144
-12.0117
-12.0095
-12.0221
-12.0193
-12.0163
-12.0131
-12.0104
-12.0249
-12.0219
-12.0185
-12.0149
-12.0118
-12.0277
-12.0247
-12.0211
-12.0173
-12.0139
-12.0307
-12.0278
-12.0242
-12.0203
-12.0166
-12.0337
-12.031
-12.0276
-12.0238
-12.0201
-12.0365
-12.0343
-12.0313
-12.0277
-12.0239
-12.0381
-12.0364
-12.0338
-12.0305
-12.0269
-12.0374
-12.036
-12.0338
-12.0309
-12.0275
-12.0343
-12.0328
-12.0305
-12.0276
-12.0241
-12.9953
-12.9951
-12.9949
-12.9947
-12.9946
-12.9953
-12.9951
-12.995
-12.9947
-12.9945
-12.9954
-12.9953
-12.9953
-12.9949
-12.9948
-12.9955
-12.9949
-12.9948
-12.9953
-12.9952
-12.9952
-12.9953
-12.9953
-12.9954
-12.9953
-12.9953
-12.9956
-12.9954
-12.9956
-12.9959
-12.9955
-12.9958
-12.9964
-12.996
-12.9964
-12.9971
-12.996
-12.9969
-12.9979
-12.998
-13.0005
-12.9983
-12.9987
-12.9994
-12.9976
-12.9986
-12.9982
-12.9994
-13.0004
-12.9987
-12.9992
-13.0005
-13.0016
-12.999
-13
-13.0014
-13.0028
-12.9998
-13.001
-13.0025
-13.004
-13.0007
-13.0021
-13.0036
-13.0052
-13.0017
-13.0032
-13.0048
-13.0063
-13.0028
-13.0043
-13.0059
-13.0076
-13.0041
-13.0056
-13.0072
-13.0088
-13.0055
-13.007
-13.0086
-13.0101
-13.0114
-13.0072
-13.0086
-13.0101
-13.0115
-13.0127
-13.0092
-13.0104
-13.0116
-13.0129
-13.0139
-13.0114
-13.0123
-13.0133
-13.0143
-13.015
-13.0139
-13.0145
-13.0151
-13.0156
-13.0161
-13.0166
-13.0168
-13.0169
-13.017
-13.017
-13.0196
-13.0193
-13.0189
-13.0184
-13.0178
-13.0227
-13.022
-13.0209
-13.0197
-13.0186
-13.026
-13.0247
-13.023
-13.0211
-13.0194
-13.0294
-13.0276
-13.0252
-13.0227
-13.0202
-13.0329
-13.0306
-13.0277
-13.0244
-13.0213
-13.0364
-13.0338
-13.0303
-13.0264
-13.0226
-13.0399
-13.0371
-13.0333
-13.0289
-13.0245
-13.0434
-13.0405
-13.0365
-13.0317
-13.0269
-13.0469
-13.0439
-13.0399
-13.035
-13.0299
-13.0502
-13.0474
-13.0435
-13.0386
-13.0334
-13.0534
-13.051
-13.0473
-13.0427
-13.0375
-13.0564
-13.0546
-13.0513
-13.0469
-13.0417
-13.0583
-13.0568
-13.054
-13.05
-13.0452
-13.0579
-13.0567
-13.0544
-13.0508
-13.0462
-13.0551
-13.0537
-13.0512
-13.0477
-13.0433
-14.0056
-14.0052
-14.005
-14.0047
-14.0045
-14.0056
-14.0053
-14.005
-14.0046
-14.0045
-14.0057
-14.0054
-14.0052
-14.0047
-14.0046
-14.0053
-14.0048
-14.0048
-14.0053
-14.0051
-14.0052
-14.0053
-14.0054
-14.0055
-14.0054
-14.0056
-14.0059
-14.0057
-14.0059
-14.0064
-14.0058
-14.0063
-14.0069
-14.0065
-14.0071
-14.0079
-14.0063
-14.0076
-14.0087
-14.01
-14.0132
-14.0098
-14.01
-14.0105
-14.0094
-14.0105
-14.0096
-14.0107
-14.0116
-14.0095
-14.0107
-14.0108
-14.0119
-14.013
-14.0108
-14.0116
-14.0129
-14.0141
-14.0116
-14.0127
-14.014
-14.0154
-14.0125
-14.0137
-14.0151
-14.0165
-14.0136
-14.0149
-14.0163
-14.0177
-14.0148
-14.0161
-14.0175
-14.0189
-14.0162
-14.0175
-14.0189
-14.0201
-14.0178
-14.0191
-14.0203
-14.0214
-14.0198
-14.0209
-14.0219
-14.0228
-14.0236
-14.0221
-14.0229
-14.0237
-14.0243
-14.0248
-14.0248
-14.0253
-14.0256
-14.0258
-14.0259
-14.0278
-14.0279
-14.0277
-14.0274
-14.027
-14.0312
-14.0308
-14.03
-14.0291
-14.0281
-14.0349
-14.034
-14.0326
-14.0309
-14.0292
-14.0388
-14.0374
-14.0353
-14.0329
-14.0305
-14.0429
-14.041
-14.0383
-14.035
-14.0318
-14.0471
-14.0448
-14.0415
-14.0375
-14.0335
-14.0514
-14.0488
-14.045
-14.0404
-14.0355
-14.0557
-14.0529
-14.0488
-14.0436
-14.0381
-14.0599
-14.0571
-14.0527
-14.0472
-14.0411
-14.0639
-14.0611
-14.0567
-14.051
-14.0445
-14.0675
-14.0649
-14.0606
-14.0549
-14.0483
-14.0709
-14.0685
-14.0645
-14.0589
-14.0523
-14.0741
-14.0721
-14.0685
-14.0632
-14.0567
-14.0771
-14.0756
-14.0723
-14.0672
-14.0608
-14.0792
-14.0781
-14.0754
-14.0707
-14.0644
-14.0783
-14.077
-14.074
-14.0694
-14.0634
-14.0756
-14.0743
-14.0716
-14.0676
-14.0625
-15.0158
-15.0154
-15.015
-15.0147
-15.0145
-15.0159
-15.0154
-15.015
-15.0145
-15.0143
-15.0159
-15.0154
-15.015
-15.0144
-15.0144
-15.0151
-15.0147
-15.0147
-15.0152
-15.0151
-15.0152
-15.0153
-15.0154
-15.0156
-15.0155
-15.0157
-15.0161
-15.0158
-15.0162
-15.0167
-15.0159
-15.0165
-15.0173
-15.0167
-15.0175
-15.0185
-15.0163
-15.0181
-15.0194
-15.0225
-15.0263
-15.0214
-15.0211
-15.0214
-15.0216
-15.0228
-15.021
-15.0219
-15.0226
-15.0218
-15.0229
-15.0224
-15.0233
-15.0241
-15.022
-15.023
-15.0234
-15.0244
-15.0254
-15.0239
-15.0246
-15.0257
-15.0268
-15.0248
-15.0258
-15.0269
-15.028
-15.0261
-15.0272
-15.0282
-15.0292
-15.0275
-15.0286
-15.0296
-15.0305
-15.0293
-15.0303
-15.0311
-15.0319
-15.0313
-15.0322
-15.0328
-15.0333
-15.0338
-15.0344
-15.0347
-15.0348
-15.0367
-15.0369
-15.0368
-15.0365
-15.0362
-15.04
-15.0398
-15.0392
-15.0384
-15.0375
-15.0438
-15.0431
-15.0419
-15.0404
-15.0388
-15.0479
-15.0468
-15.0449
-15.0426
-15.0403
-15.0524
-15.0507
-15.0482
-15.0451
-15.042
-15.0571
-15.055
-15.0518
-15.0479
-15.044
-15.062
-15.0595
-15.0558
-15.0511
-15.0463
-15.067
-15.0643
-15.0601
-15.0547
-15.049
-15.072
-15.0692
-15.0647
-15.0588
-15.0522
-15.0768
-15.0741
-15.0694
-15.0631
-15.056
-15.0814
-15.0788
-15.0742
-15.0677
-15.06
-15.0855
-15.0831
-15.0786
-15.0722
-15.0643
-15.0889
-15.0869
-15.0827
-15.0764
-15.0686
-15.092
-15.0902
-15.0864
-15.0805
-15.0728
-15.095
-15.0936
-15.0902
-15.0845
-15.077
-15.0978
-15.0968
-15.0935
-15.0881
-15.0807
-15.0999
-15.0991
-15.0963
-15.0911
-15.0838
-15.0979
-15.0966
-15.0934
-15.088
-15.0813
-15.0956
-15.0944
-15.0917
-15.0874
-15.0817
-16.0262
-16.0256
-16.025
-16.0246
-16.0244
-16.0261
-16.0255
-16.0248
-16.0242
-16.0241
-16.0261
-16.0254
-16.0247
-16.0241
-16.0242
-16.0248
-16.0246
-16.0247
-16.025
-16.025
-16.0252
-16.0252
-16.0254
-16.0257
-16.0254
-16.0258
-16.0262
-16.0258
-16.0263
-16.027
-16.0259
-16.0267
-16.0276
-16.0268
-16.0278
-16.0289
-16.0261
-16.0283
-16.0298
-16.0357
-16.04
-16.033
-16.0322
-16.0323
-16.0346
-16.0355
-16.0326
-16.0331
-16.0336
-16.0349
-16.0357
-16.0344
-16.0348
-16.0354
-16.0351
-16.0358
-16.0356
-16.0362
-16.0368
-16.0361
-16.0369
-16.0372
-16.0378
-16.0384
-16.0382
-16.0387
-16.0393
-16.0398
-16.0398
-16.0404
-16.0409
-16.0413
-16.0417
-16.0423
-16.0426
-16.0428
-16.0439
-16.0444
-16.0445
-16.0444
-16.0466
-16.0468
-16.0466
-16.0462
-16.0497
-16.0496
-16.049
-16.0481
-16.0533
-16.0528
-16.0517
-16.0502
-16.0573
-16.0564
-16.0547
-16.0525
-16.0504
-16.0619
-16.0604
-16.0581
-16.0552
-16.0522
-16.0668
-16.0648
-16.0618
-16.0581
-16.0543
-16.072
-16.0696
-16.0659
-16.0614
-16.0568
-16.0775
-16.0747
-16.0705
-16.0652
-16.0596
-16.0831
-16.0801
-16.0754
-16.0694
-16.0629
-16.0887
-16.0857
-16.0807
-16.0741
-16.0668
-16.0941
-16.0912
-16.0862
-16.0792
-16.0712
-16.0992
-16.0966
-16.0917
-16.0845
-16.0759
-16.1037
-16.1015
-16.0969
-16.0898
-16.0809
-16.1075
-16.1057
-16.1015
-16.0947
-16.0858
-16.1105
-16.1092
-16.1054
-16.099
-16.0903
-16.1131
-16.1121
-16.1087
-16.1028
-16.0944
-16.1157
-16.115
-16.1119
-16.1063
-16.0982
-16.118
-16.1175
-16.1146
-16.1091
-16.1013
-16.1196
-16.1191
-16.1162
-16.1107
-16.1031
-16.1176
-16.1167
-16.1138
-16.1087
-16.1016
-16.115
-16.114
-16.1111
-16.1066
-16.1004
-17.0366
-17.0358
-17.035
-17.0345
-17.0343
-17.0364
-17.0355
-17.0345
-17.0338
-17.0339
-17.0363
-17.0355
-17.0344
-17.0339
-17.0341
-17.0346
-17.0345
-17.0347
-17.0348
-17.0349
-17.0352
-17.0351
-17.0354
-17.0358
-17.0353
-17.0358
-17.0363
-17.0357
-17.0364
-17.0371
-17.0358
-17.0368
-17.0379
-17.0369
-17.0381
-17.0393
-17.0358
-17.0386
-17.0403
-17.0499
-17.0546
-17.0449
-17.0433
-17.0431
-17.0484
-17.049
-17.0447
-17.0445
-17.0446
-17.0489
-17.0493
-17.047
-17.0468
-17.0469
-17.0493
-17.0495
-17.0486
-17.0486
-17.0487
-17.0507
-17.0511
-17.0507
-17.0507
-17.0506
-17.0523
-17.0528
-17.0527
-17.0526
-17.0525
-17.0544
-17.055
-17.055
-17.0548
-17.0543
-17.0575
-17.0575
-17.057
-17.0563
-17.0605
-17.0603
-17.0595
-17.0583
-17.0638
-17.0634
-17.0622
-17.0606
-17.0677
-17.0669
-17.0652
-17.063
-17.072
-17.0708
-17.0685
-17.0657
-17.0768
-17.0751
-17.0722
-17.0687
-17.082
-17.0798
-17.0763
-17.0719
-17.0675
-17.0876
-17.0849
-17.0808
-17.0756
-17.0703
-17.0934
-17.0904
-17.0856
-17.0798
-17.0735
-17.0994
-17.0961
-17.0909
-17.0844
-17.0772
-17.1054
-17.1021
-17.0966
-17.0895
-17.0815
-17.1113
-17.1081
-17.1026
-17.0951
-17.0863
-17.1169
-17.1141
-17.1087
-17.101
-17.0917
-17.1219
-17.1196
-17.1146
-17.107
-17.0973
-17.126
-17.1244
-17.1199
-17.1127
-17.1029
-17.1294
-17.1282
-17.1245
-17.1177
-17.1082
-17.1319
-17.1312
-17.1281
-17.1219
-17.1128
-17.134
-17.1337
-17.1309
-17.1252
-17.1166
-17.136
-17.136
-17.1334
-17.128
-17.1198
-17.1379
-17.1379
-17.1353
-17.13
-17.122
-17.1389
-17.1385
-17.1356
-17.1302
-17.1224
-17.1368
-17.1363
-17.1333
-17.1282
-17.1209
-17.1337
-17.1326
-17.1293
-17.1239
-17.1168
-18.0471
-18.0461
-18.045
-18.0444
-18.0442
-18.0468
-18.0456
-18.0441
-18.0435
-18.0437
-18.0468
-18.0457
-18.0444
-18.044
-18.0442
-18.0445
-18.0445
-18.0447
-18.0447
-18.0449
-18.0453
-18.045
-18.0454
-18.0458
-18.0452
-18.0458
-18.0465
-18.0457
-18.0465
-18.0473
-18.0458
-18.0469
-18.0481
-18.047
-18.0484
-18.0498
-18.0456
-18.0489
-18.0508
-18.0652
-18.0704
-18.0574
-18.0547
-18.0541
-18.0633
-18.0635
-18.0574
-18.0565
-18.0561
-18.0642
-18.064
-18.0605
-18.0595
-18.0589
-18.0648
-18.0646
-18.0628
-18.062
-18.0613
-18.0667
-18.0666
-18.0656
-18.0647
-18.0638
-18.0689
-18.069
-18.0683
-18.0673
-18.0662
-18.0718
-18.072
-18.0713
-18.0702
-18.0687
-18.075
-18.0753
-18.0746
-18.0731
-18.0713
-18.079
-18.0781
-18.0763
-18.0739
-18.0831
-18.082
-18.0797
-18.0768
-18.0877
-18.0862
-18.0834
-18.0798
-18.0927
-18.0907
-18.0874
-18.0831
-18.0982
-18.0956
-18.0917
-18.0867
-18.1039
-18.1009
-18.0963
-18.0906
-18.1099
-18.1065
-18.1013
-18.0949
-18.088
-18.116
-18.1123
-18.1068
-18.0997
-18.0919
-18.1222
-18.1184
-18.1126
-18.105
-18.0964
-18.1283
-18.1247
-18.1187
-18.1107
-18.1014
-18.1342
-18.1309
-18.1251
-18.1169
-18.1071
-18.1395
-18.1368
-18.1314
-18.1233
-18.1131
-18.1441
-18.1421
-18.1373
-18.1296
-18.1193
-18.1477
-18.1465
-18.1425
-18.1354
-18.1253
-18.1504
-18.1498
-18.1468
-18.1404
-18.1307
-18.1523
-18.1523
-18.15
-18.1442
-18.1351
-18.154
-18.1544
-18.1524
-18.1472
-18.1386
-18.1557
-18.1563
-18.1544
-18.1493
-18.1411
-18.1572
-18.1576
-18.1555
-18.1504
-18.1425
-18.1575
-18.1575
-18.1548
-18.1494
-18.1416
-18.1553
-18.1548
-18.1516
-18.1459
-18.1383
-18.152
-18.1506
-18.1464
-18.1401
-18.133
-19.0578
-19.0565
-19.0552
-19.0544
-19.0542
-19.0574
-19.0558
-19.054
-19.0535
-19.0538
-19.0575
-19.0563
-19.0547
-19.0544
-19.0546
-19.0545
-19.0546
-19.0549
-19.0547
-19.0551
-19.0555
-19.055
-19.0555
-19.056
-19.0552
-19.0559
-19.0567
-19.0558
-19.0567
-19.0576
-19.0559
-19.0572
-19.0585
-19.0573
-19.059
-19.0605
-19.0558
-19.0595
-19.0615
-19.082
-19.0876
-19.0707
-19.0667
-19.0656
-19.0797
-19.0793
-19.071
-19.0693
-19.0682
-19.0809
-19.0801
-19.0752
-19.0733
-19.0719
-19.0818
-19.081
-19.0783
-19.0766
-19.075
-19.0844
-19.0838
-19.082
-19.0802
-19.0783
-19.0873
-19.087
-19.0856
-19.0837
-19.0814
-19.0909
-19.0908
-19.0895
-19.0873
-19.0847
-19.095
-19.0949
-19.0935
-19.0911
-19.088
-19.0995
-19.0995
-19.0979
-19.095
-19.0913
-19.1043
-19.1025
-19.0992
-19.0949
-19.1096
-19.1073
-19.1035
-19.0985
-19.1151
-19.1124
-19.108
-19.1023
-19.1208
-19.1177
-19.1127
-19.1064
-19.1268
-19.1232
-19.1177
-19.1107
-19.1328
-19.1289
-19.123
-19.1155
-19.1389
-19.1348
-19.1286
-19.1206
-19.1115
-19.145
-19.1409
-19.1346
-19.1262
-19.1165
-19.1508
-19.147
-19.1408
-19.1323
-19.1221
-19.1563
-19.153
-19.1471
-19.1387
-19.1282
-19.1612
-19.1586
-19.1533
-19.1452
-19.1347
-19.1652
-19.1634
-19.159
-19.1515
-19.1411
-19.1682
-19.1674
-19.1639
-19.1571
-19.1471
-19.1702
-19.1702
-19.1677
-19.1618
-19.1523
-19.1716
-19.1723
-19.1706
-19.1653
-19.1565
-19.173
-19.1741
-19.1726
-19.1678
-19.1595
-19.1745
-19.1757
-19.1742
-19.1695
-19.1616
-19.1758
-19.1767
-19.1749
-19.1701
-19.1623
-19.1761
-19.1764
-19.1738
-19.1685
-19.1608
-19.1742
-19.1736
-19.1702
-19.1642
-19.1565
-19.1708
-19.1695
-19.1651
-19.1587
-19.1512
-20.0688
-20.0672
-20.0655
-20.0647
-20.0645
-20.0684
-20.0663
-20.0641