/*--------------------------------*- C++ -*----------------------------------*\
| =========                 |                                                 |
| \\      /  F ield         | OpenFOAM: The Open Source CFD Toolbox           |
|  \\    /   O peration     | Version:  2.3.1                                 |
|   \\  /    A nd           | Web:      www.OpenFOAM.org                      |
|    \\/     M anipulation  |                                                 |
\*---------------------------------------------------------------------------*/
FoamFile
{
    version     2.0;
    format      ascii;
    class       volScalarField;
    location    "600";
    object      p_rgh;
}
// * * * * * * * * * * * * * * * * * * * * * * * * * * * * * * * * * * * * * //

dimensions      [0 2 -2 0 0 0 0];

internalField   nonuniform List<scalar> 
6852
(
78.3713
78.3528
78.3401
78.3336
78.3591
78.3413
78.3304
78.3262
78.3557
78.3315
78.3184
78.3153
78.389
78.3457
78.3182
78.3076
78.4008
78.3525
78.3178
78.3008
78.4078
78.3554
78.3161
78.295
78.3988
78.3448
78.3047
78.2823
78.3788
78.3243
78.2854
78.264
78.2601
78.3506
78.2973
78.2611
78.2422
78.2401
78.3133
78.2641
78.233
78.218
78.2186
78.2708
78.2281
78.2038
78.1935
78.197
78.2156
78.1878
78.1738
78.1696
78.1764
78.1707
78.155
78.1486
78.1492
78.1581
78.1367
78.1293
78.1282
78.1324
78.1424
78.1121
78.1101
78.1127
78.119
78.1293
78.0947
78.0962
78.101
78.1083
78.1184
78.0825
78.0862
78.0921
78.0999
78.1096
78.0739
78.0789
78.0854
78.0933
78.1023
78.0675
78.0734
78.0803
78.0881
78.0965
78.0628
78.0693
78.0764
78.084
78.0918
78.0592
78.0663
78.0736
78.081
78.0883
78.0567
78.0642
78.0716
78.0788
78.0857
78.055
78.0628
78.0704
78.0774
78.084
78.0541
78.0622
78.0698
78.0768
78.0831
78.0538
78.0622
78.0699
78.0768
78.0831
78.0543
78.0629
78.0707
78.0776
78.0838
78.0553
78.0642
78.072
78.079
78.0851
78.0569
78.0659
78.0739
78.0809
78.0871
78.059
78.0682
78.0763
78.0833
78.0895
78.0617
78.071
78.079
78.0861
78.0922
78.0648
78.0741
78.0822
78.0892
78.0952
78.0683
78.0777
78.0857
78.0925
78.0985
78.0724
78.0816
78.0895
78.0963
78.1024
78.077
78.0862
78.094
78.1009
78.1066
78.0825
78.0917
78.0995
78.1059
78.111
78.089
78.098
78.1053
78.111
78.1152
78.0965
78.1048
78.1114
78.1161
78.1193
78.105
78.1125
78.118
78.1215
78.1234
78.1145
78.121
78.1253
78.1274
78.1278
78.1241
78.1298
78.1328
78.1334
78.1324
78.1315
78.1368
78.1393
78.1389
78.1369
78.3738
78.3545
78.3391
78.3303
78.3273
78.3366
78.3232
78.3183
78.3194
78.3213
78.3013
78.296
78.3005
78.3445
78.3037
78.2851
78.2836
78.3589
78.3106
78.2839
78.2746
78.3653
78.3126
78.2816
78.2675
78.3553
78.3009
78.2692
78.2538
78.3366
78.2813
78.2504
78.2356
78.3093
78.2545
78.2261
78.2139
78.2203
78.2727
78.2216
78.1981
78.1904
78.1998
78.2314
78.1863
78.1698
78.1676
78.18
78.1746
78.1485
78.1423
78.1467
78.1617
78.1361
78.1224
78.1226
78.1306
78.1462
78.1087
78.1035
78.1083
78.1183
78.1332
78.0911
78.0912
78.0982
78.1085
78.1224
78.08
78.0832
78.0909
78.1008
78.1135
78.0727
78.0776
78.0851
78.0945
78.1061
78.0674
78.073
78.0804
78.0895
78.1001
78.0631
78.0692
78.0768
78.0855
78.095
78.0596
78.0662
78.0739
78.0823
78.091
78.0568
78.0641
78.0718
78.0799
78.0879
78.0549
78.0626
78.0704
78.0782
78.0856
78.0536
78.0617
78.0696
78.0771
78.0841
78.0531
78.0615
78.0694
78.0768
78.0834
78.0531
78.0618
78.0699
78.077
78.0834
78.0538
78.0628
78.0708
78.0779
78.0841
78.0551
78.0642
78.0722
78.0792
78.0853
78.057
78.0662
78.0742
78.0811
78.0872
78.0593
78.0686
78.0766
78.0835
78.0896
78.0621
78.0714
78.0794
78.0863
78.0925
78.0653
78.0746
78.0825
78.0895
78.0958
78.069
78.0782
78.0861
78.0932
78.0997
78.0732
78.0824
78.0905
78.0976
78.1038
78.0783
78.0876
78.0955
78.1023
78.1079
78.0843
78.0934
78.1008
78.1069
78.1118
78.0908
78.0993
78.1062
78.1116
78.1157
78.0977
78.1057
78.112
78.1165
78.1196
78.1056
78.113
78.1183
78.1217
78.1234
78.1148
78.1213
78.1255
78.1273
78.1276
78.1241
78.1298
78.1329
78.1334
78.1321
78.1337
78.1391
78.1415
78.1406
78.1378
78.3431
78.3286
78.3185
78.3156
78.3181
78.3208
78.3078
78.3002
78.3015
78.3083
78.2833
78.2695
78.2719
78.2834
78.298
78.2584
78.2527
78.2602
78.3177
78.2669
78.2511
78.2501
78.325
78.2671
78.2458
78.2394
78.3131
78.2531
78.2315
78.2236
78.2952
78.2328
78.2116
78.2039
78.2683
78.2052
78.1864
78.181
78.2309
78.1714
78.158
78.1568
78.1719
78.1889
78.136
78.1303
78.1341
78.1522
78.1237
78.1012
78.1055
78.115
78.1355
78.0948
78.0845
78.0908
78.1024
78.1235
78.0768
78.0736
78.0816
78.0944
78.1145
78.0671
78.0676
78.0762
78.0896
78.1079
78.0621
78.0645
78.0733
78.0863
78.1029
78.0588
78.0628
78.0719
78.084
78.0989
78.0568
78.0621
78.071
78.0823
78.0956
78.0556
78.0617
78.0703
78.0809
78.0928
78.0547
78.0612
78.0698
78.0798
78.0904
78.0537
78.0608
78.0694
78.0789
78.0884
78.0528
78.0605
78.0692
78.0782
78.0869
78.0522
78.0605
78.0692
78.0778
78.0858
78.0521
78.0608
78.0696
78.0778
78.0853
78.0524
78.0616
78.0703
78.0783
78.0853
78.0533
78.0627
78.0714
78.0792
78.0859
78.0547
78.0643
78.073
78.0805
78.0871
78.0566
78.0664
78.075
78.0824
78.0889
78.059
78.0689
78.0774
78.0847
78.0912
78.0619
78.0718
78.0802
78.0875
78.0939
78.0652
78.0751
78.0835
78.0907
78.0971
78.0691
78.0789
78.0872
78.0944
78.1006
78.0736
78.0832
78.0914
78.0984
78.1045
78.0788
78.0882
78.0962
78.103
78.1087
78.0848
78.094
78.1017
78.108
78.1131
78.092
78.1008
78.1079
78.1134
78.1174
78.1003
78.1084
78.1145
78.1188
78.1216
78.1094
78.1166
78.1217
78.1246
78.1258
78.1196
78.1259
78.1296
78.1309
78.1302
78.1299
78.1354
78.138
78.1377
78.1353
78.1432
78.1484
78.1502
78.1482
78.1435
78.3247
78.3147
78.3081
78.309
78.3144
78.3056
78.2962
78.29
78.295
78.3047
78.2789
78.2666
78.2544
78.2632
78.2785
78.2669
78.2258
78.234
78.2499
78.2812
78.2264
78.2243
78.2331
78.2865
78.2222
78.2136
78.2169
78.2713
78.2038
78.1955
78.1973
78.2528
78.1816
78.1739
78.1755
78.2253
78.1526
78.1472
78.1524
78.1849
78.1176
78.118
78.1296
78.1388
78.0811
78.0927
78.1095
78.136
78.0631
78.053
78.0735
78.0938
78.1207
78.0495
78.0506
78.067
78.0854
78.1105
78.0455
78.0505
78.0644
78.0813
78.1042
78.0473
78.0526
78.0639
78.0792
78.1001
78.05
78.0549
78.0645
78.0787
78.0973
78.0519
78.0565
78.0654
78.0786
78.0952
78.0527
78.0574
78.0662
78.0786
78.0934
78.0526
78.058
78.0669
78.0786
78.0917
78.0521
78.0583
78.0673
78.0784
78.0902
78.0514
78.0585
78.0677
78.0782
78.0889
78.0508
78.0587
78.068
78.078
78.0878
78.0503
78.059
78.0685
78.0781
78.0871
78.0502
78.0595
78.0692
78.0784
78.0868
78.0506
78.0605
78.0702
78.0791
78.087
78.0515
78.0618
78.0715
78.0802
78.0877
78.053
78.0636
78.0733
78.0817
78.089
78.055
78.0659
78.0755
78.0837
78.0907
78.0577
78.0687
78.0781
78.0862
78.093
78.061
78.0719
78.0812
78.0891
78.0958
78.0648
78.0756
78.0847
78.0924
78.099
78.0692
78.0798
78.0886
78.0961
78.1025
78.0743
78.0845
78.0931
78.1003
78.1063
78.08
78.0899
78.0981
78.1049
78.1103
78.0866
78.096
78.1036
78.1097
78.1144
78.094
78.1028
78.1097
78.1149
78.1186
78.1024
78.1104
78.1164
78.1205
78.1228
78.1118
78.119
78.1238
78.1264
78.1272
78.1225
78.1287
78.1322
78.1331
78.1319
78.1336
78.139
78.1414
78.1406
78.1375
78.1502
78.1551
78.1564
78.1535
78.1476
78.3272
78.3171
78.3094
78.3109
78.3162
78.3137
78.3037
78.2942
78.2998
78.3089
78.29
78.2783
78.2577
78.2693
78.2841
78.2918
78.2679
78.212
78.2308
78.2505
78.2565
78.2009
78.2081
78.2248
78.2565
78.1913
78.1908
78.204
78.2365
78.1672
78.171
78.1835
78.2169
78.1435
78.1518
78.1636
78.1891
78.1163
78.1298
78.1434
78.1448
78.0827
78.1069
78.122
78.0926
78.0502
78.0846
78.1036
78.0125
78.0258
78.0635
78.0896
78.1204
78.0209
78.0347
78.0605
78.0843
78.1119
78.025
78.0407
78.0607
78.0817
78.1066
78.035
78.0471
78.0623
78.0807
78.1032
78.043
78.0521
78.0644
78.0809
78.1008
78.0479
78.0553
78.0661
78.0813
78.099
78.0506
78.0573
78.0676
78.0816
78.0973
78.0518
78.0585
78.0687
78.0817
78.0957
78.0521
78.0593
78.0694
78.0815
78.0942
78.052
78.0598
78.0699
78.0813
78.0928
78.0516
78.0602
78.0703
78.0811
78.0915
78.0513
78.0605
78.0707
78.0811
78.0906
78.0513
78.061
78.0713
78.0812
78.0901
78.0515
78.0619
78.0722
78.0817
78.0901
78.0523
78.0631
78.0734
78.0827
78.0906
78.0536
78.0648
78.075
78.084
78.0916
78.0555
78.067
78.0772
78.0859
78.0932
78.0582
78.0697
78.0798
78.0882
78.0953
78.0614
78.073
78.0828
78.091
78.0979
78.0654
78.0768
78.0864
78.0943
78.1008
78.0701
78.0812
78.0904
78.0979
78.1041
78.0754
78.0861
78.0948
78.102
78.1077
78.0815
78.0916
78.0998
78.1063
78.1115
78.0882
78.0976
78.1051
78.111
78.1153
78.0956
78.1043
78.111
78.1159
78.1193
78.1037
78.1116
78.1173
78.1211
78.1233
78.1124
78.1194
78.1241
78.1266
78.1273
78.1218
78.1279
78.1314
78.1324
78.1313
78.1315
78.1368
78.1392
78.1387
78.1361
78.1424
78.1476
78.1494
78.1474
78.1431
78.3349
78.3235
78.3137
78.3152
78.3196
78.3212
78.3092
78.2958
78.3037
78.3126
78.2977
78.2837
78.2533
78.2746
78.2893
78.305
78.2677
78.1486
78.2285
78.2533
78.2633
78.2167
78.1071
78.2023
78.2211
78.2156
78.0925
78.187
78.1971
78.2016
78.0795
78.1701
78.1775
78.192
78.0713
78.1534
78.1607
78.1759
78.0602
78.1352
78.1439
78.1359
78.0481
78.1136
78.1264
78.0626
78.039
78.0896
78.1103
77.8859
78.0051
78.061
78.0952
77.9879
78.0302
78.0625
78.0909
78.1198
78.0121
78.0402
78.0649
78.0889
78.1145
78.0311
78.0493
78.0679
78.0881
78.1108
78.0426
78.0555
78.0704
78.088
78.108
78.0492
78.0594
78.072
78.0878
78.1057
78.0526
78.0615
78.073
78.0875
78.1034
78.0541
78.0626
78.0735
78.0869
78.1012
78.0545
78.063
78.0736
78.0861
78.0991
78.0541
78.0629
78.0735
78.0853
78.0971
78.0535
78.0627
78.0733
78.0846
78.0954
78.0527
78.0625
78.0732
78.084
78.094
78.0522
78.0626
78.0733
78.0837
78.093
78.0522
78.063
78.0738
78.0839
78.0926
78.0526
78.0639
78.0747
78.0845
78.0928
78.0537
78.0654
78.0761
78.0856
78.0935
78.0554
78.0674
78.0781
78.0873
78.0948
78.058
78.0701
78.0805
78.0894
78.0966
78.0612
78.0733
78.0835
78.0921
78.0989
78.0653
78.0771
78.087
78.0951
78.1017
78.07
78.0815
78.0909
78.0986
78.1047
78.0755
78.0864
78.0953
78.1024
78.108
78.0815
78.0918
78.1
78.1065
78.1114
78.088
78.0976
78.1051
78.1108
78.115
78.0949
78.1037
78.1105
78.1154
78.1187
78.1023
78.1103
78.1163
78.1203
78.1225
78.11
78.1174
78.1224
78.1252
78.1263
78.1183
78.1248
78.1289
78.1304
78.13
78.1269
78.1325
78.1355
78.1357
78.1342
78.135
78.1403
78.1425
78.1416
78.139
78.316
78.33
78.2706
78.2815
78.2729
78.2829
78.2608
78.2433
78.2264
78.1902
78.1914
78.3257
78.3829
78.2469
78.2992
78.2587
78.3081
78.2362
78.2871
78.2696
78.2532
78.2104
78.2562
0.638748
0.639575
0.64067
0.641437
0.6418
0.638657
0.639428
0.64109
0.641802
0.642032
0.638852
0.639983
0.641721
0.642171
0.642255
0.642518
0.642552
0.642485
0.643119
0.64309
0.642927
0.643828
0.643926
0.643732
0.644572
0.644871
0.644709
0.645245
0.645742
0.64563
0.645829
0.6465
0.646446
0.646276
0.647093
0.647024
0.646633
0.647522
0.64733
0.646125
0.646644
0.647539
0.647257
0.647051
0.647344
0.647691
0.64701
0.647847
0.647769
0.647516
0.64642
0.648256
0.647767
0.647009
0.645528
0.648101
0.647313
0.64616
0.644423
0.642328
0.647514
0.646518
0.645085
0.643203
0.641111
0.646656
0.645497
0.643895
0.641936
0.639874
0.645628
0.644363
0.642661
0.640663
0.638645
0.64451
0.643182
0.641419
0.639403
0.637434
0.64334
0.641979
0.640181
0.638161
0.63624
0.642128
0.64076
0.638946
0.636935
0.635066
0.640866
0.639517
0.637713
0.635724
0.633912
0.639537
0.63824
0.636478
0.634532
0.632792
0.638123
0.63692
0.635239
0.63337
0.631721
0.636604
0.635556
0.633999
0.632258
0.630711
0.634994
0.634143
0.63278
0.631211
0.629783
0.633308
0.632708
0.631621
0.630249
0.628964
0.631595
0.631302
0.630547
0.6294
0.628271
0.629916
0.630005
0.629572
0.628707
0.627705
0.6283
0.62886
0.628766
0.628169
0.627257
0.626789
0.627887
0.628182
0.627782
0.626972
0.625433
0.627045
0.627806
0.62764
0.626849
0.624252
0.626336
0.627591
0.627718
0.626899
0.623244
0.62574
0.627452
0.627948
0.627189
0.622395
0.625201
0.627286
0.628171
0.627553
0.621696
0.624613
0.626889
0.628054
0.627662
0.621097
0.623896
0.626124
0.627401
0.6273
0.621107
0.623526
0.625517
0.626789
0.626982
0.621889
0.624101
0.625912
0.627134
0.627512
0.623093
0.625265
0.627031
0.628219
0.628627
0.638445
0.638864
0.639607
0.640445
0.641092
0.638469
0.638832
0.639634
0.640456
0.641069
0.638461
0.639034
0.640727
0.641363
0.641594
0.642199
0.642014
0.641905
0.642726
0.642453
0.642239
0.643387
0.643213
0.642931
0.644108
0.644064
0.643751
0.644741
0.644834
0.644529
0.645307
0.645506
0.645185
0.64572
0.645989
0.645609
0.646066
0.646322
0.645824
0.64565
0.646073
0.64625
0.645699
0.64676
0.646749
0.646371
0.645466
0.647393
0.646994
0.646186
0.644935
0.647664
0.646894
0.645751
0.644189
0.647472
0.646442
0.645052
0.643269
0.646923
0.645734
0.644173
0.642244
0.640134
0.646143
0.644863
0.643174
0.641158
0.639034
0.645224
0.643884
0.642111
0.640039
0.637916
0.644213
0.64284
0.641008
0.638901
0.636792
0.643132
0.641744
0.639875
0.637747
0.635668
0.641984
0.640596
0.638712
0.636578
0.634544
0.640762
0.639388
0.637524
0.635397
0.633431
0.639453
0.638116
0.636313
0.634214
0.632334
0.638049
0.636784
0.635077
0.633051
0.63127
0.636551
0.635408
0.633815
0.631948
0.63026
0.634961
0.633999
0.632576
0.630921
0.629341
0.633283
0.632606
0.631429
0.629969
0.628566
0.63157
0.631277
0.630404
0.629153
0.62795
0.629893
0.630036
0.629548
0.62856
0.627465
0.62831
0.62894
0.628903
0.62818
0.627139
0.626873
0.628025
0.628445
0.628021
0.627054
0.62562
0.627287
0.628176
0.628091
0.62717
0.624554
0.626697
0.628046
0.628302
0.627439
0.623643
0.62618
0.627941
0.628539
0.627807
0.622807
0.625603
0.627674
0.628588
0.628057
0.621986
0.624824
0.627028
0.628168
0.627892
0.621241
0.623845
0.625938
0.627173
0.627188
0.621091
0.623286
0.625122
0.626324
0.626598
0.622094
0.624093
0.625759
0.626913
0.627365
0.624054
0.626083
0.627796
0.629027
0.629592
0.638123
0.638371
0.638812
0.63944
0.640122
0.638144
0.638353
0.638742
0.639264
0.639851
0.638077
0.638389
0.639397
0.640087
0.640553
0.641391
0.641241
0.64117
0.642118
0.64185
0.641645
0.642908
0.642708
0.642387
0.643676
0.64357
0.643186
0.644305
0.644279
0.643852
0.644856
0.644872
0.6444
0.645229
0.645264
0.644712
0.645614
0.645542
0.644858
0.645309
0.645605
0.645367
0.644633
0.646509
0.646291
0.645474
0.644377
0.647049
0.646422
0.64525
0.643845
0.647269
0.646292
0.644852
0.643171
0.647088
0.645875
0.644246
0.642363
0.646629
0.645268
0.643504
0.641475
0.645976
0.644525
0.642664
0.640527
0.638178
0.645196
0.643691
0.641759
0.639534
0.637144
0.644317
0.642781
0.64079
0.638502
0.636079
0.64335
0.641797
0.639758
0.637433
0.634987
0.642288
0.640729
0.638666
0.636328
0.633884
0.641112
0.639577
0.637527
0.635182
0.6328
0.639811
0.638347
0.636345
0.634019
0.631745
0.638381
0.637042
0.635124
0.632883
0.630742
0.636821
0.635649
0.633902
0.631837
0.629783
0.635148
0.634205
0.632735
0.630874
0.62894
0.63339
0.632769
0.631637
0.630047
0.62831
0.631604
0.631395
0.630655
0.629434
0.627894
0.629859
0.630138
0.629864
0.62905
0.627695
0.628223
0.629047
0.629295
0.628877
0.627759
0.626757
0.628159
0.628953
0.628953
0.628099
0.625497
0.627467
0.628807
0.629235
0.62862
0.624436
0.626914
0.628761
0.629605
0.629229
0.623494
0.626356
0.628612
0.629834
0.629711
0.622506
0.62556
0.628069
0.629586
0.629719
0.621306
0.624296
0.626841
0.628517
0.628897
0.619897
0.622514
0.624843
0.626522
0.627136
0.618843
0.620941
0.622894
0.624422
0.625217
0.619298
0.621055
0.622709
0.624118
0.625076
0.621338
0.623095
0.624798
0.626329
0.627501
0.63765
0.637852
0.638154
0.638636
0.639243
0.637607
0.637779
0.638
0.638418
0.638918
0.637534
0.637702
0.63822
0.638878
0.639436
0.640322
0.640306
0.640346
0.641552
0.641339
0.641168
0.642517
0.642351
0.642031
0.6433
0.643215
0.642811
0.64386
0.643847
0.643415
0.644346
0.644373
0.643885
0.644645
0.644669
0.644088
0.645109
0.644909
0.644176
0.644523
0.644936
0.644583
0.643828
0.646055
0.645768
0.644747
0.643579
0.646654
0.64591
0.644564
0.643064
0.646997
0.645885
0.644287
0.642479
0.646942
0.645598
0.643829
0.641786
0.646656
0.645165
0.643263
0.641033
0.64619
0.644605
0.642596
0.640219
0.645599
0.643949
0.641849
0.639356
0.636673
0.644889
0.643192
0.641018
0.63844
0.635688
0.644055
0.642329
0.640105
0.637471
0.634667
0.643082
0.641349
0.639108
0.636444
0.63363
0.641952
0.640248
0.638026
0.635375
0.632614
0.640655
0.639033
0.636876
0.634308
0.63164
0.639187
0.637712
0.635681
0.633283
0.630731
0.637552
0.636297
0.634492
0.632315
0.629922
0.635772
0.634822
0.633348
0.631448
0.629305
0.633887
0.633338
0.632295
0.630767
0.62893
0.631959
0.631904
0.631377
0.630317
0.628808
0.630061
0.630575
0.630641
0.630117
0.628954
0.628266
0.629397
0.630108
0.630162
0.629404
0.626632
0.628391
0.629761
0.630415
0.630101
0.625183
0.627528
0.629523
0.630769
0.630908
0.623879
0.626705
0.62923
0.631011
0.631594
0.622602
0.62573
0.628623
0.630823
0.631816
0.621151
0.624347
0.627397
0.629861
0.631196
0.619334
0.622336
0.625304
0.627842
0.629417
0.61711
0.619607
0.622243
0.624664
0.626381
0.614983
0.616918
0.619063
0.621168
0.62288
0.614385
0.615866
0.617558
0.619363
0.621038
0.615858
0.617295
0.619014
0.620926
0.622813
0.637059
0.637287
0.637558
0.637979
0.638503
0.636955
0.637159
0.637357
0.637776
0.638212
0.636905
0.637055
0.637382
0.638103
0.638635
0.639252
0.639609
0.639806
0.641265
0.641119
0.640949
0.642378
0.642246
0.641923
0.643109
0.643052
0.642678
0.64356
0.64359
0.6432
0.643996
0.644044
0.643593
0.644217
0.64423
0.643684
0.644828
0.644466
0.64373
0.645455
0.643332
0.644221
0.643914
0.643247
0.645456
0.645295
0.644196
0.643049
0.646213
0.645494
0.644093
0.642588
0.646795
0.645648
0.64399
0.642136
0.646942
0.645546
0.643708
0.641591
0.646889
0.645328
0.643335
0.641003
0.646646
0.64497
0.642849
0.640351
0.646261
0.644497
0.642269
0.639638
0.64572
0.643895
0.641584
0.638858
0.63594
0.645014
0.643157
0.640799
0.638012
0.635054
0.644117
0.642271
0.639912
0.637106
0.634153
0.643009
0.641231
0.638932
0.636174
0.633264
0.641674
0.640037
0.637878
0.63525
0.632428
0.640113
0.638698
0.63677
0.634372
0.631694
0.638328
0.637224
0.635639
0.633573
0.63113
0.636349
0.635648
0.634518
0.63289
0.630795
0.634225
0.634016
0.633448
0.63237
0.630725
0.632018
0.632376
0.632459
0.632036
0.630932
0.629793
0.630769
0.631566
0.631874
0.631385
0.62761
0.629218
0.630751
0.631831
0.632024
0.62551
0.627716
0.629957
0.631799
0.632705
0.623497
0.626212
0.62907
0.63161
0.633215
0.621536
0.62461
0.627933
0.631041
0.633279
0.619539
0.622773
0.626353
0.629845
0.632588
0.617366
0.620539
0.624156
0.627827
0.630917
0.614867
0.617754
0.621185
0.624827
0.628093
0.611914
0.614221
0.617257
0.620698
0.624012
0.608918
0.610698
0.613189
0.616202
0.619305
0.607291
0.608537
0.610391
0.612815
0.615505
0.607952
0.609133
0.610971
0.613395
0.616129
0.636396
0.636702
0.637017
0.637438
0.637904
0.636231
0.636525
0.636797
0.637268
0.637669
0.636244
0.636468
0.636829
0.637662
0.638154
0.638694
0.639504
0.63972
0.64133
0.641252
0.641071
0.642465
0.642387
0.642079
0.643073
0.643091
0.642771
0.643411
0.643511
0.643199
0.643812
0.643897
0.643522
0.643955
0.643975
0.643502
0.64478
0.644278
0.643555
0.644569
0.641757
0.643493
0.643425
0.642953
0.645822
0.644694
0.644908
0.643887
0.642879
0.645708
0.645209
0.643912
0.642524
0.646626
0.645605
0.644031
0.642252
0.64702
0.645711
0.643941
0.641876
0.647216
0.645708
0.643764
0.64147
0.647174
0.645528
0.643451
0.64099
0.646951
0.645209
0.643032
0.640451
0.646522
0.644727
0.642493
0.639838
0.645876
0.644078
0.641841
0.639168
0.636164
0.644979
0.643244
0.64107
0.638442
0.635472
0.643798
0.642203
0.640183
0.637692
0.634824
0.642313
0.640949
0.639188
0.636949
0.63427
0.640524
0.639485
0.638096
0.636233
0.633853
0.638439
0.637813
0.636909
0.63555
0.633597
0.636093
0.63596
0.635648
0.634916
0.633527
0.633538
0.63396
0.634329
0.63434
0.633642
0.630829
0.631841
0.632951
0.633789
0.633889
0.628022
0.629621
0.631489
0.633199
0.634174
0.625164
0.627307
0.629899
0.632476
0.634372
0.6223
0.624895
0.628119
0.631496
0.634294
0.619457
0.622375
0.626085
0.630128
0.633735
0.616661
0.61975
0.62376
0.628273
0.632525
0.61391
0.616999
0.621103
0.625855
0.630541
0.61115
0.614075
0.618078
0.622863
0.627781
0.608216
0.610788
0.614503
0.619148
0.624154
0.604812
0.606807
0.610186
0.614654
0.619691
0.601362
0.603016
0.605862
0.609875
0.614557
0.598838
0.599909
0.602057
0.605307
0.60942
0.598889
0.599876
0.601912
0.604942
0.608657
0.635683
0.636109
0.636522
0.636981
0.637416
0.635465
0.635897
0.636314
0.636857
0.637252
0.635577
0.635949
0.636534
0.637509
0.638005
0.639038
0.639929
0.640044
0.641706
0.641694
0.641472
0.64271
0.642716
0.642438
0.64319
0.643282
0.643046
0.643415
0.643575
0.64337
0.643802
0.64392
0.643641
0.643865
0.643916
0.643541
0.645002
0.644343
0.643669
0.643233
0.639777
0.642766
0.643127
0.642969
0.64491
0.643702
0.644574
0.6438
0.643064
0.646171
0.645031
0.644978
0.643965
0.64284
0.646329
0.645622
0.644309
0.642768
0.646955
0.645902
0.644386
0.642566
0.64735
0.64606
0.644369
0.642344
0.647421
0.645985
0.644189
0.642042
0.647253
0.64574
0.643893
0.641685
0.646814
0.645287
0.643453
0.64125
0.646088
0.644621
0.642871
0.640745
0.645032
0.643708
0.642124
0.640166
0.63773
0.643596
0.642512
0.641211
0.639534
0.637331
0.64176
0.641015
0.640123
0.638861
0.637007
0.63953
0.639212
0.638847
0.638133
0.636776
0.636922
0.6371
0.637355
0.637321
0.636606
0.633984
0.634698
0.635649
0.636408
0.636474
0.63077
0.632031
0.633716
0.635359
0.636329
0.627333
0.62912
0.631532
0.634093
0.636071
0.623728
0.62598
0.629069
0.63253
0.635561
0.620025
0.622633
0.626303
0.630586
0.634647
0.616302
0.619134
0.623246
0.628208
0.633184
0.612659
0.615576
0.619953
0.625407
0.631117
0.609198
0.612087
0.616551
0.622267
0.628481
0.605998
0.608749
0.613123
0.618876
0.625347
0.603028
0.605541
0.60968
0.615298
0.621833
0.599905
0.602037
0.605847
0.611259
0.617799
0.596408
0.598139
0.601729
0.607037
0.613591
0.592697
0.594085
0.597171
0.602145
0.60863
0.590353
0.59164
0.594625
0.599332
0.605326
0.589821
0.590805
0.59317
0.596844
0.601495
0.63492
0.635504
0.636053
0.63658
0.637007
0.63466
0.635278
0.635898
0.636556
0.636975
0.634898
0.635484
0.636442
0.637669
0.63822
0.639863
0.640626
0.64062
0.642274
0.642297
0.642065
0.64306
0.643133
0.642932
0.643403
0.643553
0.643433
0.643522
0.643731
0.643659
0.643913
0.644066
0.643907
0.643903
0.643995
0.643749
0.64544
0.644585
0.643988
0.641291
0.637277
0.641963
0.642938
0.643201
0.643447
0.642315
0.644148
0.643802
0.643475
0.644905
0.643958
0.644597
0.644062
0.643359
0.646372
0.645611
0.645417
0.64456
0.643445
0.646376
0.645761
0.644707
0.643357
0.646852
0.645963
0.644752
0.643255
0.646861
0.645828
0.644581
0.643066
0.646564
0.645496
0.644278
0.642801
0.645915
0.6449
0.643796
0.642443
0.644895
0.644022
0.643122
0.641989
0.643442
0.642804
0.642212
0.641403
0.64152
0.641224
0.641054
0.6407
0.639741
0.639111
0.639251
0.63962
0.639851
0.63945
0.636229
0.636876
0.637879
0.638819
0.639137
0.632915
0.634096
0.635795
0.637542
0.638702
0.629221
0.630927
0.633346
0.635969
0.638082
0.625209
0.627388
0.630508
0.634036
0.637184
0.620968
0.623517
0.627263
0.631671
0.635893
0.616558
0.619361
0.62361
0.628812
0.634076
0.612096
0.615007
0.6196
0.625453
0.631667
0.607731
0.610601
0.615361
0.621674
0.628679
0.603628
0.606334
0.611084
0.617636
0.625213
0.599976
0.602443
0.607029
0.613577
0.621457
0.596853
0.599017
0.603316
0.609669
0.61759
0.594075
0.595933
0.599896
0.605967
0.613757
0.591026
0.592582
0.596293
0.602144
0.609806
0.587573
0.589009
0.592664
0.598484
0.606128
0.58388
0.585135
0.588567
0.594413
0.602264
0.582745
0.584429
0.588274
0.594361
0.601713
0.581488
0.582434
0.585018
0.589183
0.594648
0.634084
0.634856
0.635584
0.636228
0.636687
0.633816
0.634685
0.635608
0.636455
0.63691
0.634194
0.635066
0.636606
0.638234
0.638838
0.64088
0.64146
0.64137
0.642879
0.64294
0.642753
0.643435
0.643567
0.643484
0.643644
0.643854
0.643875
0.643646
0.643909
0.643993
0.644055
0.64424
0.644222
0.643982
0.644101
0.644004
0.645967
0.644871
0.64437
0.638502
0.634023
0.640904
0.642689
0.643486
0.641159
0.640269
0.643382
0.643657
0.643888
0.642742
0.642159
0.643743
0.643888
0.643782
0.644424
0.64407
0.644596
0.644395
0.643903
0.645215
0.644779
0.644755
0.644372
0.643764
0.645051
0.644721
0.644253
0.643617
0.644778
0.644333
0.643902
0.643361
0.644128
0.643695
0.643388
0.64302
0.643039
0.642726
0.64264
0.642536
0.6415
0.641406
0.641642
0.641901
0.639451
0.63968
0.640343
0.641077
0.636873
0.63752
0.638716
0.64004
0.633759
0.634903
0.636725
0.638754
0.640321
0.630145
0.631823
0.634329
0.637149
0.63955
0.626078
0.62828
0.631488
0.635154
0.638483
0.621631
0.624297
0.628173
0.632698
0.63702
0.616893
0.619907
0.624371
0.629722
0.635071
0.611963
0.615169
0.620086
0.62618
0.632543
0.606969
0.610186
0.615376
0.622074
0.629383
0.602059
0.605116
0.610371
0.617484
0.625608
0.597431
0.600178
0.605297
0.612597
0.621334
0.593348
0.595644
0.600457
0.607698
0.616783
0.589947
0.59179
0.596162
0.603123
0.612257
0.587204
0.588649
0.592548
0.599097
0.608017
0.584836
0.585952
0.589482
0.595632
0.604214
0.582172
0.583131
0.586511
0.59244
0.600747
0.579139
0.580192
0.583687
0.589657
0.597863
0.575992
0.577296
0.581037
0.587359
0.595555
0.575158
0.576757
0.580774
0.587031
0.595022
0.573947
0.575026
0.578027
0.58276
0.58908
0.633156
0.634165
0.635157
0.635984
0.636491
0.632917
0.634116
0.635505
0.636657
0.637193
0.633422
0.634669
0.637193
0.639251
0.639815
0.641824
0.642262
0.642212
0.643413
0.643503
0.643425
0.64377
0.643959
0.644021
0.643842
0.64412
0.644302
0.643705
0.644018
0.644285
0.644111
0.644302
0.644447
0.64396
0.644073
0.644137
0.646376
0.645001
0.644626
0.634555
0.629666
0.639306
0.642125
0.64359
0.637706
0.637206
0.641932
0.643045
0.643999
0.639289
0.639202
0.641974
0.642996
0.643672
0.64103
0.641154
0.642529
0.643128
0.643524
0.641553
0.641509
0.642209
0.642704
0.643103
0.641608
0.641397
0.641748
0.642206
0.642691
0.640942
0.640623
0.640871
0.641439
0.642137
0.6394
0.639699
0.640478
0.641475
0.637672
0.638147
0.639243
0.640636
0.635446
0.636205
0.637721
0.639606
0.632684
0.63383
0.635864
0.638338
0.629388
0.631004
0.633641
0.636795
0.625571
0.627713
0.631011
0.634918
0.621292
0.623963
0.62794
0.632648
0.637228
0.616611
0.619762
0.624387
0.6299
0.635406
0.611611
0.615134
0.620324
0.626605
0.633062
0.606395
0.610127
0.615746
0.62271
0.630114
0.601088
0.604824
0.610687
0.6182
0.626497
0.595849
0.599366
0.605251
0.613126
0.622203
0.590881
0.593976
0.599635
0.607643
0.617324
0.586409
0.588918
0.594135
0.602024
0.612063
0.582726
0.584521
0.589117
0.596643
0.606744
0.5798
0.580991
0.584895
0.591889
0.601765
0.577637
0.578353
0.581595
0.588005
0.597448
0.57572
0.576133
0.57901
0.584962
0.593923
0.573566
0.573928
0.57679
0.58254
0.591139
0.571109
0.571823
0.57499
0.58083
0.589261
0.568779
0.570152
0.574122
0.580411
0.588819
0.568239
0.569937
0.574375
0.580666
0.588934
0.567623
0.569256
0.5732
0.579284
0.586989
0.632114
0.633416
0.634786
0.635905
0.636528
0.631908
0.633531
0.635611
0.637238
0.637959
0.632522
0.634312
0.638288
0.640412
0.640908
0.642587
0.642978
0.643011
0.643804
0.643942
0.644002
0.643969
0.64421
0.644449
0.643891
0.644208
0.644585
0.643583
0.643948
0.644423
0.643928
0.644114
0.644467
0.643635
0.643707
0.643963
0.646386
0.644722
0.644528
0.629116
0.623801
0.636813
0.640923
0.64321
0.632744
0.632743
0.639389
0.641506
0.643333
0.634148
0.634629
0.638756
0.640762
0.642396
0.635734
0.636353
0.638692
0.640261
0.641771
0.635774
0.636177
0.637696
0.639207
0.640823
0.635278
0.635469
0.636573
0.638088
0.639895
0.633968
0.634004
0.634995
0.636678
0.638807
0.632066
0.632047
0.633105
0.635066
0.637606
0.629555
0.630829
0.633181
0.636225
0.626578
0.628184
0.631024
0.634652
0.623111
0.625147
0.628557
0.632844
0.619184
0.621719
0.625758
0.63076
0.614831
0.617895
0.622587
0.628334
0.610122
0.613685
0.619005
0.625493
0.60512
0.609098
0.614971
0.622161
0.629756
0.59991
0.604157
0.610454
0.618261
0.62669
0.594585
0.598907
0.60545
0.613742
0.622954
0.589303
0.593449
0.600012
0.60861
0.618505
0.584218
0.587945
0.594273
0.602954
0.613375
0.579572
0.582644
0.588473
0.596987
0.607721
0.57565
0.577861
0.58295
0.591042
0.601833
0.572595
0.573883
0.57807
0.585534
0.596119
0.570349
0.570955
0.574139
0.580871
0.591014
0.568765
0.568775
0.571201
0.57726
0.586844
0.56729
0.566994
0.569066
0.574676
0.583722
0.56557
0.565339
0.567509
0.572977
0.581638
0.563757
0.564021
0.566717
0.572355
0.580811
0.562417
0.563723
0.567506
0.573693
0.582082
0.562561
0.564787
0.569691
0.576614
0.585036
0.562751
0.565575
0.571417
0.579291
0.587823
0.630901
0.632568
0.634481
0.636093
0.636934
0.63071
0.632877
0.635928
0.638174
0.639098
0.631496
0.634185
0.639286
0.641257
0.641824
0.643176
0.643515
0.64365
0.643953
0.644141
0.644381
0.643917
0.644189
0.644635
0.64364
0.64397
0.644562
0.643113
0.643499
0.64419
0.643305
0.643503
0.644098
0.642765
0.642791
0.643319
0.645666
0.643747
0.643837
0.621866
0.616047
0.633063
0.638704
0.641879
0.625938
0.626519
0.635349
0.638561
0.641377
0.626978
0.628084
0.633707
0.636805
0.639632
0.628236
0.629405
0.632796
0.635461
0.638257
0.627694
0.628529
0.630914
0.633535
0.636533
0.626547
0.627071
0.628938
0.631578
0.634854
0.624477
0.624788
0.626504
0.629345
0.633033
0.621806
0.622021
0.623798
0.626956
0.631138
0.618508
0.618762
0.620768
0.624358
0.629116
0.615098
0.617463
0.621573
0.626967
0.611066
0.613884
0.61858
0.624653
0.606724
0.610051
0.615365
0.622133
0.602121
0.605965
0.611887
0.619336
0.597329
0.601632
0.6081
0.616179
0.592401
0.597048
0.603944
0.612562
0.587404
0.592219
0.599379
0.60841
0.618503
0.582409
0.587174
0.594388
0.603663
0.614283
0.577553
0.582007
0.589025
0.598338
0.609351
0.57302
0.576878
0.583432
0.592549
0.603783
0.569002
0.572035
0.577861
0.586539
0.597793
0.565826
0.567793
0.572651
0.580662
0.591712
0.563537
0.564405
0.568142
0.575336
0.585976
0.562089
0.562033
0.5646
0.570943
0.581027
0.561017
0.560258
0.562012
0.567668
0.577164
0.55985
0.55878
0.560215
0.56549
0.574472
0.558417
0.557472
0.559078
0.564305
0.572944
0.557001
0.556671
0.558877
0.56436
0.572808
0.556306
0.55724
0.560554
0.566647
0.575024
0.557095
0.559695
0.564437
0.571355
0.579672
0.55826
0.56209
0.568849
0.576789
0.58481
0.629456
0.631601
0.634278
0.636616
0.637756
0.629259
0.632126
0.636533
0.63927
0.640282
0.630345