/*--------------------------------*- C++ -*----------------------------------*\
| =========                 |                                                 |
| \\      /  F ield         | OpenFOAM: The Open Source CFD Toolbox           |
|  \\    /   O peration     | Version:  2.3.1                                 |
|   \\  /    A nd           | Web:      www.OpenFOAM.org                      |
|    \\/     M anipulation  |                                                 |
\*---------------------------------------------------------------------------*/
FoamFile
{
    version     2.0;
    format      ascii;
    class       surfaceScalarField;
    location    "600";
    object      phi;
}
// * * * * * * * * * * * * * * * * * * * * * * * * * * * * * * * * * * * * * //

dimensions      [0 3 -1 0 0 0 0];

internalField   nonuniform List<scalar> 
18381
(
0.00197717
-0.00088422
0.000965185
0.00174362
-0.000660295
0.000893844
0.00139466
-0.000432434
0.000781393
-0.000238042
0.000639739
0.00344635
-0.00172335
0.000705675
0.00336706
-0.0013606
0.000779594
0.00307698
-0.000956874
0.000814522
-0.000575531
0.00079613
0.00390383
-0.0018792
-0.000120863
0.00391542
-0.00151922
0.00014704
0.003667
-0.00109806
0.000389611
-0.000681312
0.000562125
0.00422558
-0.000983655
-0.00138705
0.0043761
-0.000808438
-0.000861307
0.00417912
-0.000551396
-0.000349694
-0.000257829
5.26605e-05
0.004245
9.42302e-05
-0.00167663
0.00451092
0.00018426
-0.00125863
0.00441433
0.000319661
-0.000774466
0.000478337
-0.000311037
0.00433416
0.00112773
-0.0016777
0.00464138
0.00116787
-0.00129083
0.00457712
0.00121662
-0.000832694
0.00126456
-0.000379004
0.00434495
0.00201231
-0.00153548
0.004661
0.00200698
-0.00115516
0.00460777
0.00199496
-0.000725112
0.0019652
-0.000303023
0.00430555
0.00282339
-0.00146455
0.00461448
0.00276439
-0.00106634
0.00455326
0.00268945
-0.000633264
0.00415154
0.00258521
-0.000218297
0.0024674
0.00420386
0.00359472
-0.00142546
0.00449968
0.00346719
-0.000998612
0.00442271
0.00331384
-0.000547428
0.00401275
0.00312635
-0.000131177
0.00293696
0.000183876
0.00402647
0.00432642
-0.00137268
0.00430139
0.00411064
-0.000918365
0.00420698
0.00385956
-0.000451302
0.0037924
0.00358031
-3.93844e-05
0.00331963
0.000257696
0.00377718
0.00500632
-0.00128908
0.00402198
0.00466809
-0.000802259
0.00391162
0.00430191
-0.000332003
0.00349977
0.00393155
6.06195e-05
0.00360523
0.000330696
0.00341749
0.00541126
-0.000923384
0.00362618
0.00499995
-0.000540545
0.00351631
0.00456147
-0.000149689
0.00312989
0.00413835
0.00017962
0.00377445
0.000402621
0.0030128
0.00554748
-0.000560351
0.00318165
0.0051068
-0.000275694
0.00307286
0.00464224
2.80192e-05
0.00272096
0.00420328
0.000286966
0.00383129
0.000460666
0.00259754
0.0054628
-0.000254944
0.00272594
0.00502844
-5.0046e-05
0.00261833
0.00457584
0.000174008
0.00230313
0.00415011
0.000368372
0.00379339
0.00049759
0.00219186
0.00522695
-3.19263e-05
0.0022835
0.00482245
0.000114352
0.00217903
0.00440314
0.000277181
0.00189946
0.00400998
0.000419694
0.00368425
0.00051181
0.00180969
0.00490654
0.000112562
0.00187153
0.00454089
0.000219711
0.00177108
0.0041644
0.000339182
0.00152439
0.00381334
0.000443336
0.0035272
0.000505956
0.00146002
0.00454961
0.000197871
0.0014983
0.00422417
0.000278444
0.00140194
0.00389221
0.000368552
0.00118499
0.00358592
0.000444372
0.00334221
0.000484459
0.00114519
0.00418805
0.000241247
0.00116461
0.00389988
0.000304864
0.0010727
0.00360988
0.000374237
0.000882754
0.00334681
0.000429063
0.00314438
0.000452265
0.000862115
0.00384083
0.000257376
0.000867215
0.00358515
0.000309627
0.000780658
0.00333241
0.000364025
0.000615705
0.00310862
0.000403142
0.00294393
0.000413786
0.000605832
0.00351759
0.00025686
0.000600907
0.00328893
0.000301152
0.000521114
0.00306803
0.000344173
0.000379945
0.00287855
0.000371236
0.0027469
0.000372485
0.000370558
0.00322125
0.000247328
0.000359758
0.00301433
0.000285398
0.00028853
0.00282004
0.000319215
0.000170614
0.00265975
0.000336716
0.0025563
0.000330875
0.000150405
0.00295053
0.000233656
0.000137836
0.00276063
0.000266269
7.73144e-05
0.00258837
0.000292195
-1.79298e-05
0.00245325
0.000301746
0.00237211
0.000289726
-6.00835e-05
0.00270119
0.00021896
-7.0614e-05
0.00252515
0.000246011
-0.000118244
0.0023715
0.000264501
-0.000189056
0.00225714
0.000266915
0.00219196
0.00025042
-0.000265344
0.00246781
0.000204853
-0.000269783
0.00230374
0.000225844
-0.000301502
0.0021661
0.000237118
-0.00034603
0.00206807
0.000233603
0.00201252
0.000214185
-0.000468575
0.00224431
0.000192105
-0.000462587
0.00209115
0.000206603
-0.000474924
0.00196737
0.000211068
-0.000491265
0.00188164
0.000202772
0.00183066
0.000181584
-0.000671115
0.0020249
0.000179996
-0.000650316
0.00188207
0.00018828
-0.000640154
0.00177035
0.000186863
-0.000627074
0.00169361
0.000174949
0.00164352
0.000152802
-0.000873117
0.00180413
0.000167932
-0.000833273
0.00167179
0.000170438
-0.000798202
0.00157083
0.000164447
-0.000755456
0.00150069
0.000150172
0.00144925
0.000127473
-0.00107339
0.00157695
0.000155965
-0.001011
0.00145628
0.000153129
-0.000949512
0.00136579
0.00014355
-0.000877624
0.00130119
0.000127619
0.00124791
0.000104178
-0.00126902
0.00133966
0.000143656
-0.00118178
0.00123282
0.000136209
-0.00109352
0.00115371
0.000123826
-0.00099379
0.0010952
0.00010625
0.00104182
8.09276e-05
-0.00145557
0.00109051
0.00013042
-0.00134258
0.00100078
0.000119057
-0.00122828
0.000935442
0.000103969
-0.00110264
0.000885959
8.36006e-05
0.000837743
5.39933e-05
-0.00162695
0.000830941
0.000114907
-0.00148875
0.000762941
9.96413e-05
-0.00134998
0.000715955
8.07203e-05
-0.00120109
0.000682036
5.50284e-05
0.000649505
1.78978e-05
-0.00177515
0.000567242
9.40837e-05
-0.00161338
0.000527358
7.38212e-05
-0.00145267
0.000506472
4.87652e-05
-0.00128485
0.000499127
1.50952e-05
0.000484621
-2.57942e-05
-0.00189007
0.000313022
6.19956e-05
-0.00170787
0.000310228
3.49236e-05
-0.00152793
0.000322805
3.72764e-06
-0.00133731
0.000339525
-3.10122e-05
0.000332471
-6.69615e-05
-0.00196367
8.86103e-05
1.44517e-05
-0.00176087
0.000121674
-1.4244e-05
-0.00155626
0.000161095
-4.29059e-05
-0.00133569
0.000189489
-7.05327e-05
0.000183116
-9.89984e-05
-0.00198723
-0.000107405
-3.86068e-05
-0.00175516
-5.1422e-05
-5.89738e-05
-0.00151835
3.20097e-06
-7.89112e-05
-0.00126954
4.09177e-05
-0.000100238
3.60518e-05
-0.000123313
-0.00193572
-0.000282855
-9.13001e-05
-0.00167105
-0.000213914
-0.000102174
-0.00140559
-0.000148004
-0.00011426
-0.00113474
-0.000100969
-0.000128959
-0.000100401
-0.000145187
-0.00182976
-0.000425317
-0.000154891
-0.00153373
-0.000351219
-0.000158724
-0.00123984
-0.000279571
-0.000162317
-0.000949533
-0.00022515
-0.00016613
-0.000215986
-0.000169112
-0.00169196
-0.000514485
-0.000241757
-0.00135985
-0.000445174
-0.000238156
-0.00103303
-0.000375729
-0.000230659
-0.000721137
-0.00031792
-0.000219123
-0.00030147
-0.000202262
-0.00152886
-0.000511149
-0.00036361
-0.00116237
-0.000458222
-0.000353438
-0.000800973
-0.000402287
-0.000334841
-0.000463298
-0.000349777
-0.000305817
-0.000332964
-0.000263653
-0.00130932
-0.000362138
-0.00051146
-0.000931019
-0.000335311
-0.000501207
-0.000550719
-0.000304008
-0.000478578
-0.000192231
-0.000270353
-0.000437911
-0.000258252
-0.000368811
-0.000860095
-0.000623244
-0.000566379
-0.000629027
-0.000253456
-0.000616931
4.64914e-05
-0.0005703
-0.000475412
0.00292054
0.00179467
0.0028749
-0.000710362
0.00172118
0.00262328
-0.000463692
0.00160915
0.00219832
-0.000230928
0.00143728
-4.74025e-05
0.00121651
0.00398777
-0.00133051
0.00113926
0.00395742
-0.000956499
0.00130275
0.00372464
-0.000562286
0.00137867
-0.000205749
0.00136321
0.00417957
-0.00135953
-0.000430254
0.00424766
-0.000937785
6.02316e-05
0.00407252
-0.000494976
0.00049744
-9.37991e-05
0.000820566
0.00406526
-0.000510391
-0.00279187
0.00427138
-0.000224232
-0.00178098
0.00419616
9.9832e-05
-0.000869283
0.000413383
-0.000143051
0.00400249
0.000402302
-0.00322876
0.0042853
0.000577874
-0.00234354
0.00425374
0.000812068
-0.00145514
0.00104524
-0.000668388
0.00411541
0.00126361
-0.00321207
0.00442542
0.00138722
-0.00241019
0.00441033
0.00156173
-0.00156726
0.00173381
-0.000797538
0.00415294
0.00206764
-0.00302708
0.00448066
0.00215969
-0.00225535
0.00448552
0.00229818
-0.00146642
0.00242457
-0.00073956
0.00414166
0.00283378
-0.00293353
0.0044784
0.00289491
-0.0021383
0.00449492
0.0030001
-0.0013517
0.00308213
-0.000635911
0.00406453
0.00360041
-0.00290747
0.0044037
0.00361777
-0.00206064
0.00442558
0.00367359
-0.0012428
0.0041967
0.00369951
-0.00051967
0.00365646
0.00390396
0.00438601
-0.0028669
0.00423685
0.00432668
-0.00196017
0.00426503
0.00430559
-0.00111148
0.00405087
0.00425977
-0.000385482
0.00415518
0.000193278
0.00367084
0.00520484
-0.00278669
0.00398641
0.00499906
-0.00179022
0.00402453
0.00487146
-0.000935999
0.00383142
0.0047401
-0.000226596
0.00457308
0.00032763
0.00333109
0.00576993
-0.00205241
0.00363231
0.00548692
-0.00132963
0.00370307
0.00529401
-0.000642992
0.00354585
0.00510051
-2.35632e-05
0.0048907
0.0004718
0.00300038
0.00613127
-0.00139127
0.00328034
0.0058184
-0.000887128
0.00336391
0.00558556
-0.000347102
0.00322741
0.00534726
0.000176716
0.00510926
0.000599653
0.00269621
0.00634954
-0.00086873
0.00295175
0.00602682
-0.000514004
0.00303246
0.00576514
-8.62873e-05
0.00290195
0.00549715
0.000348985
0.00524056
0.000698879
0.00242509
0.00646876
-0.000487997
0.00264849
0.00614088
-0.00022311
0.00271241
0.00585373
0.000124673
0.00258181
0.00556669
0.000480755
0.00529927
0.000763989
0.00218028
0.00651072
-0.000219286
0.0023682
0.00617813
-5.45551e-06
0.00240638
0.00587127
0.000283462
0.00227326
0.00557116
0.000571985
0.00529978
0.000796324
0.00194719
0.00649033
-2.8703e-05
0.0020988
0.00615194
0.000153021
0.00211399
0.00583232
0.000392313
0.00197903
0.00552477
0.000625726
0.0052551
0.000800222
0.00171873
0.0064181
0.000102809
0.00183826
0.00607692
0.000260351
0.00183444
0.00574941
0.000460973
0.00169993
0.0054395
0.000648841
0.00517613
0.000781794
0.00149244
0.0063068
0.000189022
0.00158525
0.00596466
0.00032908
0.00156706
0.00563311
0.000498515
0.001436
0.00532508
0.000648615
0.00507161
0.000747253
0.00126793
0.00616684
0.000244123
0.00133898
0.00582425
0.000370513
0.00131109
0.00549178
0.0005134
0.00118657
0.00518903
0.000631805
0.00494826
0.00070208
0.00104466
0.00600537
0.000279218
0.00109871
0.00566246
0.000393138
0.00106552
0.00533154
0.000512642
0.000950456
0.00503683
0.000603986
0.00481104
0.000650694
0.000821848
0.00582686
0.000301721
0.000863426
0.0054838
0.000403356
0.000829049
0.00515653
0.000501577
0.000725998
0.00487227
0.000569361
0.00466303
0.000596161
0.000598401
0.00563338
0.000316974
0.00063192
0.00529063
0.000405664
0.000600042
0.00496906
0.00048385
0.000511106
0.00469741
0.000530713
0.00450613
0.000540845
0.000373036
0.00542533
0.000327802
0.000402729
0.00508371
0.000403072
0.000376705
0.00477018
0.000462025
0.000303964
0.00451347
0.000490277
0.00434165
0.000486584
0.000144104
0.0052026
0.000335725
0.000174273
0.00486373
0.000396413
0.000157577
0.0045606
0.000437343
0.000103137
0.00432133
0.00044935
0.00417097
0.000434317
-8.95577e-05
0.0049636
0.000341311
-5.44486e-05
0.00463063
0.000386265
-5.87132e-05
0.00434158
0.000410152
-9.33438e-05
0.0041229
0.000408016
0.0039949
0.000383855
-0.000327735
0.00470603
0.000344504
-0.000283828
0.00438436
0.000372805
-0.000272888
0.00411444
0.000380648
-0.000286029
0.00391966
0.000366549
0.00381314
0.000335613
-0.000570063
0.00442917
0.000343889
-0.000513577
0.00412535
0.000355649
-0.000484782
0.00388004
0.000349156
-0.000474733
0.00371188
0.000325358
0.00362413
0.000289495
-0.000814953
0.00413344
0.000338067
-0.00074245
0.00385488
0.000334184
-0.000693535
0.00363954
0.000315412
-0.000658837
0.00349939
0.000284038
0.00342546
0.000244656
-0.00105981
0.00382059
0.000325467
-0.000968434
0.00357503
0.000307528
-0.000897703
0.00339409
0.000278685
-0.000837309
0.00328099
0.000241605
0.00321252
0.000199742
-0.00130127
0.00349383
0.000304235
-0.00118906
0.00328806
0.000274403
-0.00109551
0.00314349
0.000237767
-0.00100843
0.00305225
0.000196697
0.00297429
0.000153671
-0.0015357
0.00315668
0.000272385
-0.00140171
0.00299456
0.000233328
-0.00128411
0.00288326
0.000191404
-0.00116606
0.00280063
0.00014867
0.00269964
0.000105924
-0.00175949
0.00280974
0.00022801
-0.00160123
0.0026878
0.000183423
-0.00145341
0.00259939
0.000139778
-0.00129703
0.00251559
9.76346e-05
0.00239004
5.60185e-05
-0.0019628
0.0024453
0.000171425
-0.00177253
0.00235753
0.000125764
-0.00158579
0.00228634
8.33921e-05
-0.00138722
0.00220359
4.29047e-05
0.00206144
2.2252e-06
-0.00212448
0.00206072
0.000102892
-0.00189448
0.00200894
5.96153e-05
-0.00166635
0.0019593
2.00099e-05
-0.00142729
0.00188155
-1.72627e-05
0.00172932
-5.39011e-05
-0.00222414
0.00167357
1.50759e-05
-0.00195354
0.00165795
-2.17842e-05
-0.00168482
0.00163019
-5.387e-05
-0.00140872
0.00155921
-8.27189e-05
0.00140119
-0.000109771
-0.00224978
0.00129487
-9.50282e-05
-0.0019388
0.00130787
-0.000119624
-0.00163072
0.00129819
-0.000138387
-0.00132133
0.00123723
-0.000153549
0.00108331
-0.000166292
-0.00219335
0.00091866
-0.000224976
-0.00184046
0.000951078
-0.000234263
-0.00149387
0.000958049
-0.000237106
-0.00115552
0.000914487
-0.000234724
0.000779935
-0.000227448
-0.00205124
0.000538595
-0.000384999
-0.00165457
0.000580159
-0.000379192
-0.00126773
0.0006013
-0.000364924
-0.000901004
0.000583577
-0.000341637
0.000485136
-0.000308175
-0.00183055
0.000179593
-0.000589415
-0.00139257
0.000214938
-0.000573968
-0.000962582
0.000239761
-0.00054703
-0.000559308
0.000247773
-0.00050538
0.000193726
-0.000444886
-0.00136998
-0.000845297
-0.000944827
-0.000839241
-0.00050736
-0.000814637
-6.50969e-05
-0.00076479
-0.00066308
0.00298012
-0.000346914
0.00205399
0.0028964
-0.000128442
0.00193335
0.00262257
9.31535e-05
0.00178982
0.00220392
0.00026379
0.00159215
0.000372414
0.001357
0.00374739
0.0011744
0.00388108
-0.000410545
0.00128767
0.00378955
3.2721e-05
0.00145472
0.00350842
0.000407481
0.0015161
0.000677846
0.00148301
0.00384509
-0.000516459
-0.000580971
0.0038102
0.000131712
-3.87623e-06
0.00358869
0.000656261
0.000470176
0.00104286
0.000816412
0.00350627
-1.53415e-07
-0.00387826
0.00356098
0.000507413
-0.00221138
0.00335245
0.000997492
-0.00100198
0.00139868
-0.000143495
0.00342151
0.000586673
-0.00446972
0.00354018
0.000945124
-0.00289992
0.00332466
0.00138464
-0.00162677
0.00178254
-0.000643903
0.00354669
0.00119522
-0.00449439
0.00365558
0.0014917
-0.00306566
0.00340961
0.00189098
-0.00182761
0.00226163
-0.000825723
0.00356445
0.00181244
-0.00432143
0.00367172
0.00207206
-0.00294298
0.00342875
0.00244181
-0.00177427
0.00278148
-0.00080991
0.00353992
0.0024289
-0.00423916
0.00364002
0.00266538
-0.00283171
0.00339594
0.00300947
-0.00167528
0.00330843
-0.00072664
0.00344199
0.00308224
-0.00425882
0.00352727
0.00328715
-0.00276769
0.00327864
0.00358402
-0.00156872
0.00382189
-0.000623625
0.00323387
0.0038042
-0.00426107
0.00329394
0.0039219
-0.00265499
0.00305392
0.00412888
-0.00141631
0.00269325
0.00428758
-0.000490505
0.00436046
0.00291758
0.00462992
-0.00421651
0.00294125
0.00451116
-0.00240314
0.00273479
0.00459339
-0.00119406
0.00244594
0.00466929
-0.000319446
0.0046993
0.00033801
0.00239938
0.00504654
-0.0028573
0.002446
0.00484703
-0.00171211
0.00234036
0.00488733
-0.000831294
0.00215285
0.004931
-9.7762e-05
0.00494704
0.000496972
0.00196506
0.00524153
-0.00185105
0.00202509
0.0050382
-0.00113833
0.00199311
0.00506564
-0.000493438
0.0018795
0.00510505
0.000116282
0.00512439
0.00063746
0.00161159
0.00533461
-0.00115432
0.00168177
0.0051519
-0.000697893
0.00169731
0.00518179
-0.000217974
0.00163357
0.00522309
0.00029469
0.00524839
0.000746588
0.00133868
0.00539479
-0.000695865
0.00142593
0.00523212
-0.00039058
0.0014669
0.00526686
-1.36076e-06
0.00142249
0.00530914
0.000439122
0.00533384
0.000823165
0.00112996
0.00545257
-0.000399897
0.00122021
0.00530857
-0.000172156
0.00127076
0.00533342
0.000166358
0.00123712
0.00537045
0.000544309
0.00538923
0.000867778
0.000973128
0.00551493
-0.000206686
0.00106035
0.00538302
-8.65729e-06
0.00110213
0.00538986
0.000294097
0.00107142
0.00541184
0.000615045
0.00542016
0.000884448
0.000839369
0.00558247
-6.90553e-05
0.000916847
0.00544831
0.000117587
0.000949181
0.00543307
0.000385423
0.000918571
0.00543455
0.000656744
0.00542997
0.000878061
0.000716526
0.0056435
3.63247e-05
0.000780485
0.00550076
0.000212666
0.000804407
0.00546027
0.000447394
0.000773533
0.00543895
0.000675082
0.00542075
0.000853766
0.000590456
0.00568867
0.000117619
0.000644261
0.00553517
0.000282304
0.000662408
0.00546894
0.000486591
0.000632824
0.00542504
0.000675305
0.00539393
0.000816423
0.000456713
0.0057138
0.000180206
0.00050429
0.00554806
0.000332671
0.000520005
0.00545739
0.000508472
0.000494208
0.00539279
0.000662035
0.00535059
0.000770219
0.000313647
0.00571608
0.000230011
0.000358781
0.00553739
0.000368889
0.000375609
0.00542472
0.00051742
0.000356284
0.00534239
0.000639084
0.00529161
0.000718441
0.00016077
0.00569422
0.00027098
0.000207161
0.00550204
0.000394623
0.000228483
0.00537053
0.000516715
0.000218053
0.0052742
0.000609336
0.00521786
0.000663647
-1.4423e-06
0.00564684
0.000305416
4.95495e-05
0.005442
0.000412122
7.82756e-05
0.00529522
0.000508612
7.88301e-05
0.00518901
0.000574907
0.00513047
0.000607676
-0.000172143
0.0055725
0.000335226
-0.000113835
0.00535765
0.000422457
-7.52131e-05
0.00519964
0.000494306
-6.20051e-05
0.00508813
0.000537027
0.00503061
0.000551455
-0.000350457
0.00547026
0.000360315
-0.000281987
0.00524887
0.000426572
-0.000231686
0.0050848
0.000474689
-0.000204758
0.00497285
0.000496361
0.0049187
0.000495436
-0.000535167
0.00533969
0.000380039
-0.000454243
0.00511642
0.00042433
-0.000390936
0.00495206
0.000450081
-0.000349379
0.00484439
0.000453454
0.00479466
0.000440153
-0.000725108
0.00518089
0.000392924
-0.000629902
0.00496163
0.000415236
-0.000552495
0.00480315
0.000420654
-0.00049527
0.00470383
0.000408694
0.00465777
0.000385847
-0.000918784
0.00499484
0.000397179
-0.000807894
0.0047864
0.000398528
-0.000715431
0.00463985
0.000386251
-0.000641307
0.00455165
0.000362089
0.00450641
0.000332416
-0.00111436
0.00478348
0.00039088
-0.000986732
0.00459299
0.0003733
-0.000878257
0.00446355
0.000346513
-0.000785746
0.00438729
0.000313456
0.0043378
0.00027969
-0.00130954
0.00454955
0.000372065
-0.00116437
0.00438356
0.000338668
-0.00103876
0.00427455
0.000301149
-0.00092604
0.00420845
0.00026282
0.00414768
0.000228006
-0.00150154
0.00429587
0.000339252
-0.00133804
0.00415912
0.000294276
-0.00119372
0.00407108
0.000250554
-0.00105843
0.00401068
0.000211143
0.00393075
0.000178222
-0.00168675
0.00402414
0.000292093
-0.00150364
0.0039182
0.000241227
-0.00133807
0.00384866
0.000196628
-0.00117756
0.00378781
0.000160002
0.00368124
0.000130974
-0.00185977
0.00373338
0.000232974
-0.00165474
0.00365651
0.000182428
-0.00146492
0.0036006
0.000141622
-0.00127628
0.00353161
0.000110473
0.00339044
8.65463e-05
-0.00201322
0.00341859
0.000165281
-0.00178272
0.00336521
0.0001204
-0.00156409
0.0033153
8.66891e-05
-0.00134361
0.00323152
6.23393e-05
0.00305328
4.34985e-05
-0.00213478
0.00306317
9.09639e-05
-0.00187405
0.00302805
5.46513e-05
-0.00162214
0.00298023
2.92855e-05
-0.00136736
0.00288186
1.21697e-05
0.00267367
-1.14168e-06
-0.0022092
0.00264941
8.0646e-06
-0.00191346
0.00263061
-1.79214e-05
-0.00162489
0.00258713
-3.38625e-05
-0.00133552
0.00248173
-4.27912e-05
0.0022582
-4.91751e-05
-0.00222174
0.00216238
-8.42501e-05
-0.00188545
0.00215874
-9.86875e-05
-0.00155571
0.00212445
-0.00010416
-0.00123093
0.00202599
-0.00010376
0.00181098
-0.000101449
-0.00215302
0.00157345
-0.000185273
-0.00176926
0.00158403
-0.00018824
-0.00139278
0.00156669
-0.000183647
-0.0010305
0.00149552
-0.000173447
0.00132165
-0.000160528
-0.00198694
0.000848894
-0.000298169
-0.00155252
0.000867911
-0.000292268
-0.00112321
0.000869809
-0.000279461
-0.000714913
0.000842254
-0.000260409
0.000739393
-0.000236955
-0.00156755
-0.000428464
-0.00111524
-0.000423638
-0.000649967
-0.000410103
-0.000185308
-0.000387193
-0.000348177
0.00281152
0.000340001
0.00165348
0.0027223
0.000488629
0.00153394
0.00243797
0.000649633
0.00142453
0.00201741
0.000740901
0.00127181
0.000765564
0.00109336
0.00356387
0.000355556
0.000968934
0.00360369
0.000719072
0.0010174
0.00339789
0.00117428
0.00113587
0.00303525
0.00143968
0.00117996
0.0015491
0.00116492
0.00339418
-0.000839293
0.00358684
0.000495704
-0.000550264
0.00339205
0.00138752
-2.23268e-05
0.00304534
0.00191156
0.000345001
0.0021901
0.00061591
0.00308025
0.00053153
-0.0046069
0.00302136
0.00134498
-0.00210995
0.00268382
0.00204638
-0.000799261
0.0025317
-4.36117e-05
0.00291834
0.000745235
-0.00538953
0.00284984
0.00140936
-0.00289582
0.00245003
0.00216523
-0.00134582
0.00278002
-0.000378752
0.00300987
0.00106747
-0.00550134
0.00284585
0.00165601
-0.00314829
0.00233607
0.00240766
-0.00156026
0.00307343
-0.000500383
0.00298642
0.00147693
-0.00539369
0.00274871
0.00201688
-0.00306614
0.00218327
0.00275131
-0.00155249
0.00342144
-0.000476984
0.00292858
0.00194078
-0.00535727
0.0026179
0.00246416
-0.00296832
0.00199765
0.00318539
-0.00148911
0.0038094
-0.000383752
0.0027913
0.00248214
-0.00544109
0.00240439
0.00299599
-0.00291262
0.00172176
0.00367932
-0.00138002
0.00421099
-0.000292202
0.00250381
0.00315439
-0.00549717
0.00203009
0.00358029
-0.00276557
0.00131768
0.00415232
-0.0011769
0.00457702
-0.000194868
0.00202013
0.00402955
-0.00549571
0.00145702
0.00408446
-0.00234421
0.000811249
0.00452381
-0.000919769
0.000290612
0.00486428
-8.60667e-05
0.00510356
0.00113737
0.00423253
-0.0030672
0.000700252
0.00424371
-0.00143424
0.000253273
0.004705
-0.000565513
-6.80377e-05
0.00503845
4.93775e-05
0.00524586
0.000465685
0.000476514
0.00420745
-0.0016768
0.000122391
0.00431429
-0.000854783
-0.00018523
0.0048128
-0.000293613
-0.000340176
0.00514223
0.000167445
0.00532511
0.000542509
-2.58862e-05
0.00415594
-0.000893384
-0.000303859
0.00436867
-0.000474304
-0.000485373
0.00487799
-0.000101655
-0.000514523
0.00520262
0.000263455
0.00537165
0.000605507
-0.000376819
0.00415945
-0.000473216
-0.000594923
0.00443992
-0.000243725
-0.000679059
0.00493025
3.05208e-05
-0.000617647
0.00523975
0.000340575
0.00540321
0.000652536
-0.000613112
0.00421863
-0.000246402
-0.000772058
0.00452768
-0.00010097
-0.000784398
0.00498383
0.000125123
-0.000671315
0.00527008
0.0004009
0.00542904
0.000682433
-0.000772913
0.00431789
-0.000119489
-0.000877274
0.00462968
-6.29009e-06
-0.000835766
0.00503898
0.00019743
-0.000695781
0.00529915
0.000445986
0.00545175
0.000695855
-0.000878817
0.00444153
-4.25065e-05
-0.000934471
0.00473963
6.32834e-05
-0.000858033
0.00509488
0.00025309
-0.000705757
0.00532717
0.000476457
0.00547064
0.000694287
-0.000953326
0.00457695
1.10624e-05
-0.00096695
0.00484696
0.000118967
-0.000868076
0.00514811
0.000295287
-0.000711157
0.00535173
0.0004936
0.00548361
0.000679947
-0.00101123
0.00471145
5.42089e-05
-0.000990558
0.00494435
0.000164244
-0.000876422
0.00519456
0.000326007
-0.000718267
0.00536973
0.000499149
0.00548823
0.000655387
-0.00106346
0.00483402
9.24155e-05
-0.00101465
0.00502684
0.000201377
-0.000889141
0.00523046
0.000347062
-0.000730706
0.00537823
0.000495098
0.00548229
0.000623155
-0.00111725
0.00493781
0.000127623
-0.00104444
0.00509094
0.000231981
-0.000909397
0.00525277
0.000360058
-0.000750323
0.00537483
0.000483415
0.00546398
0.00058552
-0.00117662
0.0050186
0.000160585
-0.00108245
0.00513431
0.000257085
-0.000938536
0.00525926
0.000366316
-0.000777907
0.00535773
0.000465806
0.00543198
0.000544386
-0.00124335
0.00507374
0.000191592
-0.00112952
0.00515546
0.000277136
-0.000976855
0.00524844
0.000366775
-0.000813591
0.00532576
0.000443608
0.00538534
0.000501197
-0.00131766
0.00510188
0.000220596
-0.00118552
0.0051535
0.000292273
-0.0010241
0.00521934
0.000361988
-0.000857174
0.00527815
0.000417712
0.00532322
0.000456869
-0.0013993
0.00510219
0.000246792
-0.00124981
0.00512816
0.000302424
-0.00107965
0.00517156
0.000352303
-0.000908235
0.0052144
0.000388702
0.00524471
0.000412
-0.00148756
0.00507435
0.000268904
-0.00132162
0.00507951
0.000307033
-0.00114281
0.00510506
0.000337772
-0.00096613
0.00513416
0.000357015
0.00514883
0.000367122
-0.0015816
0.00501829
0.000285199
-0.00140008
0.00500793
0.000305288
-0.0012127
0.00502002
0.000318319
-0.00102988
0.00503706
0.000322976
0.00503435
0.000322627
-0.00168036
0.00493432
0.000293701
-0.00148414
0.00491396
0.00029627
-0.00128815
0.0049165
0.00029378
-0.00109812
0.00492232
0.000286793
0.00489954
0.000278789
-0.00178257
0.00482298
0.000292445
-0.00157246
0.00479801
0.000279146
-0.00136762
0.00479411
0.000264066
-0.001169
0.00478842
0.000248731
0.0047421
0.000235954
-0.00188654
0.00468489
0.000279689
-0.00166324
0.00465995
0.000253426
-0.00144889
0.00465147
0.000229437
-0.00123992
0.0046329
0.000209377
0.00455925
0.000194796
-0.00199016
0.00452007
0.000254585
-0.00175395
0.00449855
0.000219456
-0.00152884
0.00448604
0.000190882
-0.00130722
0.00445249
0.000169928
0.0043481
0.000156386
-0.00209034
0.00432768
0.000217674
-0.00184078
0.00431132
0.000178895
-0.00160275
0.00429423
0.000150418
-0.00136581
0.00424341
0.000132135
0.00410563
0.00012203
-0.00218254
0.00410535
0.00017199
-0.00191806
0.00409425
0.000135012
-0.00166427
0.00407121
0.000110841
-0.00140947
0.00400101
9.80733e-05
0.00382845
9.32321e-05
-0.0022604
0.00384753
0.000122652
-0.00197834
0.0038404
9.21899e-05
-0.0017055
0.0038097
7.53653e-05
-0.0014306
0.00371884
6.96154e-05
0.00351194
7.05222e-05
-0.00231577
0.00354246
7.66807e-05
-0.00201276
0.00353674
5.53056e-05
-0.00171749
0.00349707
4.66393e-05
-0.00142064
0.00338676
4.74023e-05
0.00315009
5.28001e-05
-0.002338
0.00316634
4.24479e-05
-0.00200962
0.00316083
2.96049e-05
-0.00168823
0.00311468
2.71368e-05
-0.001368
0.002992
3.17316e-05
0.00273799
3.85924e-05
-0.00231341
0.0026847
2.85996e-05
-0.00195439
0.00268214
2.09827e-05
-0.00160221
0.00263754
2.07951e-05
-0.00125629
0.00251765
2.46768e-05
0.00226959
2.79936e-05
-0.00222452
0.00204623
5.09452e-05
-0.00182737
0.00205223
4.45178e-05
-0.00143689
0.00202224
4.11828e-05
-0.00106038
0.00192927
3.84221e-05
0.0017229
3.18134e-05
-0.00205244
0.00118552
0.000122355
-0.00161039
0.00120118
0.000116728
-0.00117201
0.00119465
0.000109742
-0.000752903
0.00115148
9.82698e-05
0.00102535
7.4026e-05
-0.00164016
0.000312787
-0.0011755
0.000312885
-0.000696838
0.00030589
-0.000219389
0.000286841
0.000234551
0.00255782
0.000791672
0.000821385
0.00245498
0.000873766
0.000763006
0.00212989
0.00101718
0.000732441
0.00168098
0.00105675
0.000663964
0.0010198
0.000581953
0.00324046
0.00114782
0.000454141
0.00324109
0.00140414
0.000486403
0.0029213
0.00187825
0.000594587
0.00245634
0.00207573
0.000625948
0.00208475
0.000634313
0.00318083
0.000612512
-0.000559237
0.00336476
0.00110012
-0.000430184
0.00299588
0.00225071
-2.59052e-05
0.00248226
0.00276734
0.000167021
0.002953
0.000325551
0.00188521
-0.00561426
0.0027311
0.000893858
-0.00524653
0.00249129
0.00206086
-0.0016803
0.00198959
0.00294602
-0.000476244
0.00343491
2.46815e-05
0.00242518
0.000817699
-0.00604309
0.00211237
0.00184938
-0.00237153
0.00148529
0.00294565
-0.000718359
0.00370776
-7.13805e-05
0.00243583
0.000879046
-0.00620438
0.00189444
0.00183355
-0.00259106
0.00107201
0.00300444
-0.000796625
0.00396261
-7.69987e-05
0.00233029
0.00110105
-0.006179
0.00156758
0.00199885
-0.00246873
0.000629045
0.00317633
-0.000785842
0.00427696
-4.51167e-05
0.00220151
0.00142668
-0.00619027
0.00122949
0.0023199
-0.00231734
0.000153457
0.00351237
-0.000749112
0.00463958
8.74993e-06
0.00199312
0.00185035
-0.0063118
0.0008093
0.00277974
-0.00218864
-0.000384378
0.00400782
-0.00068179
0.00497379
3.85299e-05
0.00158695
0.0024686
-0.0063983
0.000172939
0.00335729
-0.00192911
-0.000996633
0.00453476
-0.000534271
0.00521113
3.81733e-05
0.000793792
0.00342841
-0.00638521
-0.000664761
0.00392414
-0.0014525
-0.00159583
0.00491896
-0.000372899
0.00533583
3.55498e-05
-0.000713172
0.00345258
-0.00237372
-0.00165175
0.00411281
-0.000684328
-0.0021473
0.00502567
-0.000176676
-0.00215865
0.00533732
5.92306e-05
0.00528589
-0.00161897
0.00346429
-0.000936868
-0.00226805
0.00426248
-0.000355372
-0.00249137
0.00504304
-8.76686e-05
-0.00235154
0.00529537
6.95641e-05
0.00527893
0.000221788
-0.00225808
0.00356337
-0.000360023
-0.00265321
0.00436531
-0.000182001
-0.00268446
0.00501592
-4.3288e-05
-0.00244395
0.00523881
7.95076e-05
0.00526211
0.000238248
-0.0026287
0.00373199
-0.000153875
-0.00285038
0.00444826
-0.000105001
-0.00276172
0.00497955
-2.17651e-05
-0.00245984
0.00518596
9.15305e-05
0.00524686
0.000253253
-0.00281972
0.00390743
-8.07241e-05
-0.00291479
0.00451321
-7.08342e-05
-0.00275286
0.00494954
-6.80482e-06
-0.00242064
0.00514767
0.000106983
0.00523804
0.00026513
-0.00289876
0.00406301
-5.53553e-05
-0.00290262
0.00456401
-5.32351e-05
-0.00269359
0.00492927
8.67379e-06
-0.00234768
0.0051244
0.000123341
0.00523504
0.000272508
-0.00290239
0.00419035
-4.59828e-05
-0.00284181
0.00460638
-3.96739e-05
-0.0026063
0.00492024
2.66046e-05
-0.00225649
0.00511275
0.0001383
0.00523484
0.000274701
-0.00286415
0.00429343
-4.03804e-05
-0.00275807
0.00464454
-2.52681e-05
-0.00250713
0.00491966
4.49302e-05
-0.00215848
0.00510744
0.000150258
0.00523337
0.000271667
-0.00280419
0.00437888
-3.26058e-05
-0.00266672
0.00467938
-8.07005e-06
-0.00240634
0.00492294
6.23529e-05
-0.00206139
0.00510303
0.000158609
0.00522643
0.000263929
-0.00273887
0.00444993
-2.09527e-05
-0.00257719
0.0047078
1.12761e-05
-0.00231043
0.00492508
7.81699e-05
-0.00197021
0.00509456
0.000163348
0.00521018
0.000252343
-0.00267694
0.00450574
-5.21021e-06
-0.00249511
0.00472697
3.09702e-05
-0.00222336
0.00492149
9.18982e-05
-0.0018879
0.00507779
0.000164736
0.00518137
0.000237857
-0.00262275
0.00454415
1.39917e-05
-0.00242349
0.00473478
5.00188e-05
-0.00214722
0.00490829
0.000103249
-0.00181605
0.00504924
0.000163178
0.00513737
0.000221374
-0.00257875
0.00456438
3.4667e-05
-0.00236358
0.00472896
6.7786e-05
-0.00208286
0.00488233
0.000112008
-0.00175528
0.00500619
0.00015908
0.00507606
0.000203651
-0.00254586
0.00456598
5.54347e-05