/*--------------------------------*- C++ -*----------------------------------*\
| =========                 |                                                 |
| \\      /  F ield         | OpenFOAM: The Open Source CFD Toolbox           |
|  \\    /   O peration     | Version:  2.3.1                                 |
|   \\  /    A nd           | Web:      www.OpenFOAM.org                      |
|    \\/     M anipulation  |                                                 |
\*---------------------------------------------------------------------------*/
FoamFile
{
    version     2.0;
    format      ascii;
    class       volScalarField;
    location    "600";
    object      T;
}
// * * * * * * * * * * * * * * * * * * * * * * * * * * * * * * * * * * * * * //

dimensions      [0 0 0 1 0 0 0];

internalField   nonuniform List<scalar> 
6852
(
289.15
289.15
289.15
289.15
289.15
289.15
289.15
289.15
289.15
289.15
289.15
289.15
289.15
289.15
289.15
289.15
289.15
289.15
289.15
289.15
289.15
289.15
289.15
289.15
289.15
289.15
289.15
289.15
289.15
289.15
289.15
289.15
289.15
289.15
289.15
289.15
289.15
289.15
289.15
289.15
289.15
289.15
289.15
289.15
289.15
289.15
289.15
289.15
289.15
289.15
289.15
289.15
289.15
289.15
289.15
289.15
289.15
289.15
289.15
289.15
289.15
289.15
289.15
289.15
289.15
289.15
289.15
289.15
289.15
289.15
289.15
289.15
289.15
289.15
289.15
289.15
289.15
289.15
289.15
289.15
289.15
289.15
289.15
289.15
289.15
289.15
289.15
289.15
289.15
289.15
289.15
289.15
289.15
289.15
289.15
289.15
289.15
289.15
289.15
289.15
289.15
289.15
289.15
289.15
289.15
289.15
289.15
289.15
289.15
289.15
289.15
289.15
289.15
289.15
289.15
289.15
289.15
289.15
289.15
289.15
289.15
289.15
289.15
289.15
289.15
289.15
289.15
289.15
289.15
289.15
289.15
289.15
289.15
289.15
289.15
289.15
289.15
289.15
289.15
289.15
289.15
289.15
289.15
289.15
289.15
289.15
289.15
289.15
289.15
289.15
289.15
289.15
289.15
289.15
289.15
289.15
289.15
289.15
289.15
289.15
289.15
289.15
289.15
289.15
289.15
289.15
289.15
289.15
289.15
289.15
289.15
289.15
289.15
289.15
289.15
289.15
289.15
289.15
289.15
289.15
289.15
289.15
289.15
289.15
289.15
289.15
289.15
289.15
289.15
289.15
289.15
289.15
289.15
289.15
289.15
289.15
289.15
289.15
289.15
289.15
289.15
289.15
289.15
289.15
289.15
289.15
289.15
289.15
289.15
289.15
289.15
289.15
289.15
289.15
289.15
289.15
289.15
289.15
289.15
289.15
289.15
289.15
289.15
289.15
289.15
289.15
289.15
289.15
289.15
289.15
289.15
289.15
289.15
289.15
289.15
289.15
289.15
289.15
289.15
289.15
289.15
289.15
289.15
289.15
289.15
289.15
289.15
289.15
289.15
289.15
289.15
289.15
289.15
289.15
289.15
289.15
289.15
289.15
289.15
289.15
289.15
289.15
289.15
289.15
289.15
289.15
289.15
289.15
289.15
289.15
289.15
289.15
289.15
289.15
289.15
289.15
289.15
289.15
289.15
289.15
289.15
289.15
289.15
289.15
289.15
289.15
289.15
289.15
289.15
289.15
289.15
289.15
289.15
289.15
289.15
289.15
289.15
289.15
289.15
289.15
289.15
289.15
289.15
289.15
289.15
289.15
289.15
289.15
289.15
289.15
289.15
289.15
289.15
289.15
289.15
289.15
289.15
289.15
289.15
289.15
289.15
289.15
289.15
289.15
289.15
289.15
289.15
289.15
289.15
289.15
289.15
289.15
289.15
289.15
289.15
289.15
289.15
289.15
289.15
289.15
289.15
289.15
289.15
289.15
289.15
289.15
289.15
289.15
289.15
289.15
289.15
289.15
289.15
289.15
289.15
289.15
289.15
289.15
289.15
289.15
289.15
289.15
289.15
289.15
289.15
289.15
289.15
289.15
289.15
289.15
289.15
289.15
289.15
289.15
289.15
289.15
289.15
289.15
289.15
289.15
289.15
289.15
289.15
289.15
289.15
289.15
289.15
289.15
289.15
289.15
289.15
289.15
289.15
289.15
289.15
289.15
289.15
289.15
289.15
289.15
289.15
289.15
289.15
289.15
289.15
289.15
289.15
289.15
289.15
289.15
289.15
289.15
289.15
289.15
289.15
289.15
289.15
289.15
289.15
289.15
289.15
289.15
289.15
289.15
289.15
289.15
289.15
289.15
289.15
289.15
289.15
289.15
289.15
289.15
289.15
289.15
289.15
289.15
289.15
289.15
289.15
289.15
289.15
289.15
289.15
289.15
289.15
289.15
289.15
289.15
289.15
289.15
289.15
289.15
289.15
289.15
289.15
289.15
289.15
289.15
289.15
289.15
289.15
289.15
289.15
289.15
289.15
289.15
289.15
289.15
289.15
289.15
289.15
289.15
289.15
289.15
289.15
289.15
289.15
289.15
289.15
289.15
289.15
289.15
289.15
289.15
289.15
289.15
289.15
289.15
289.15
289.15
289.15
289.15
289.15
289.15
289.15
289.15
289.15
289.15
289.15
289.15
289.15
289.15
289.15
289.15
289.15
289.15
289.15
289.15
289.15
289.15
289.15
289.15
289.15
289.15
289.15
289.15
289.15
289.15
289.15
289.15
289.15
289.15
289.15
289.15
289.15
289.15
289.15
289.15
289.15
289.15
289.15
289.15
289.15
289.15
289.15
289.15
289.15
289.15
289.15
289.15
289.15
289.15
289.15
289.15
289.15
289.15
289.15
289.15
289.15
289.15
289.15
289.15
289.15
289.15
289.15
289.15
289.15
289.15
289.15
289.15
289.15
289.15
289.15
289.15
289.15
289.15
289.15
289.15
289.15
289.15
289.15
289.15
289.15
289.15
289.15
289.15
289.15
289.15
289.15
289.15
289.15
289.15
289.15
289.15
289.15
289.15
289.15
289.15
289.15
289.15
289.15
289.15
289.15
289.15
289.15
289.15
289.15
289.15
289.15
289.15
289.15
289.15
289.15
289.15
289.15
289.15
289.15
289.15
289.15
289.15
289.15
289.15
289.15
289.15
289.15
289.15
289.15
289.15
289.15
289.15
289.15
289.15
289.15
289.15
289.15
289.15
289.15
289.15
289.15
289.15
289.15
289.15
289.15
289.15
289.15
289.15
289.15
289.15
289.15
289.15
289.15
289.15
289.15
289.15
289.15
289.15
289.15
289.15
289.15
289.15
289.15
289.15
289.15
289.15
289.15
289.15
289.15
289.15
289.15
289.15
289.15
289.15
289.15
289.15
289.15
289.15
289.15
289.15
289.15
289.15
289.15
289.15
289.15
289.15
289.15
289.15
289.15
289.15
289.15
289.15
289.15
289.15
289.15
289.15
289.15
289.15
289.15
289.15
289.15
289.15
289.15
289.15
289.15
289.15
289.15
289.15
289.15
289.15
289.15
289.15
289.15
289.15
289.15
289.15
289.15
289.15
289.15
289.15
289.15
289.15
289.15
289.15
289.15
289.15
289.15
289.15
289.15
289.15
289.15
289.15
289.15
289.15
289.15
289.15
289.15
289.15
289.15
289.15
289.15
289.15
289.15
289.15
289.15
289.15
289.15
289.15
289.15
289.15
289.15
289.15
289.15
289.15
289.15
289.15
289.15
289.15
289.15
289.15
289.15
289.15
289.15
289.15
289.15
289.15
289.15
289.15
289.15
289.15
289.15
289.15
289.15
289.15
289.15
289.15
289.15
289.15
289.15
289.15
289.15
289.15
289.15
289.15
289.15
289.15
289.15
289.15
289.15
289.15
289.15
289.15
289.15
289.15
289.15
289.15
289.15
289.15
289.15
289.15
289.15
289.15
289.15
289.15
289.15
289.15
289.15
289.15
289.15
289.15
289.15
289.15
289.15
289.15
289.15
289.15
289.15
289.15
289.15
289.15
289.15
289.15
289.15
289.15
289.15
289.15
289.15
289.15
289.15
289.15
289.15
289.15
289.15
289.15
289.15
289.15
289.15
289.15
289.15
289.15
289.15
289.15
289.15
289.15
289.15
289.15
289.15
289.15
289.15
289.15
289.15
289.15
289.15
289.15
289.15
289.15
289.15
289.15
289.15
289.15
289.15
289.15
289.15
289.15
289.15
289.15
289.15
289.15
289.15
289.15
289.15
289.15
289.15
289.15
289.15
289.15
289.15
289.15
289.15
289.15
289.15
289.15
289.15
289.15
289.15
289.15
289.15
289.15
289.15
289.15
289.15
289.15
289.15
289.15
289.15
289.15
289.15
289.15
289.15
289.15
289.15
289.15
289.15
289.15
289.15
289.15
289.15
289.15
289.15
289.15
289.15
289.15
289.15
289.15
289.15
289.15
289.15
289.15
289.15
289.15
289.15
289.15
289.15
289.15
289.15
289.15
289.15
289.15
289.15
289.15
289.15
289.15
289.15
289.15
289.15
289.15
289.15
289.15
289.15
289.15
289.15
289.15
289.15
289.15
289.15
289.15
289.15
289.15
289.15
289.15
289.15
289.15
289.15
289.15
289.15
289.15
289.15
289.15
289.15
289.15
289.15
289.15
289.15
289.15
289.15
289.15
289.15
289.15
289.15
289.15
289.15
289.15
289.15
289.15
289.15
289.15
289.15
289.15
289.15
289.15
289.15
289.15
289.15
289.15
289.15
289.15
289.15
289.15
289.15
289.15
289.15
289.15
289.15
289.15
289.15
289.15
289.15
289.15
289.15
289.15
289.15
289.15
289.15
289.15
289.15
289.15
289.15
289.15
289.15
289.15
289.15
289.15
289.15
289.15
289.15
289.15
289.15
289.15
289.15
289.15
289.15
289.15
289.15
289.15
289.15
289.15
289.15
289.15
289.15
289.15
289.15
289.15
289.15
289.15
289.15
289.15
289.15
289.15
289.15
289.15
289.15
289.15
289.15
289.15
289.15
289.15
289.15
289.15
289.15
289.15
289.15
289.15
289.15
289.15
289.15
289.15
289.15
289.15
289.15
289.15
289.15
289.15
289.15
289.15
289.15
289.15
289.15
289.15
289.15
289.15
289.15
289.15
289.15
289.15
289.15
289.15
289.15
289.15
289.15
289.15
289.15
289.15
289.15
289.15
289.15
289.15
289.15
289.15
289.15
289.15
289.15
289.15
289.15
289.15
289.15
289.15
289.15
289.15
289.15
289.15
289.15
289.15
289.15
289.15
289.15
289.15
289.15
289.15
289.15
289.15
289.15
289.15
289.15
289.15
289.15
289.15
289.15
289.15
289.15
289.15
289.15
289.15
289.15
289.15
289.15
289.15
289.15
289.15
289.15
289.15
289.15
289.15
289.15
289.15
289.15
289.15
289.15
289.15
289.15
289.15
289.15
289.15
289.15
289.15
289.15
289.15
289.15
289.15
289.15
289.15
289.15
289.15
289.15
289.15
289.15
289.15
289.15
289.15
289.15
289.15
289.15
289.15
289.15
289.15
289.15
289.15
289.15
289.15
289.15
289.15
289.15
289.15
289.15
289.15
289.15
289.15
289.15
289.15
289.15
289.15
289.15
289.15
289.15
289.15
289.15
289.15
289.15
289.15
289.15
289.15
289.15
289.15
289.15
289.15
289.15
289.15
289.15
289.15
289.15
289.15
289.15
289.15
289.15
289.15
289.15
289.15
289.15
289.15
289.15
289.15
289.15
289.15
289.15
289.15
289.15
289.15
289.15
289.15
289.15
289.15
289.15
290.204
290.177
290.143
290.121
290.112
290.209
290.186
290.129
290.106
290.1
290.199
290.159
290.1
290.088
290.089
290.078
290.079
290.083
290.069
290.074
290.079
290.063
290.068
290.074
290.057
290.061
290.067
290.05
290.053
290.058
290.043
290.044
290.048
290.034
290.035
290.038
290.026
290.026
290.029
290.004
290.014
290.016
290.02
289.992
290
290.005
290.01
289.977
289.986
289.993
290
289.963
289.973
289.981
289.99
289.95
289.96
289.97
289.979
289.991
289.939
289.948
289.958
289.969
289.982
289.928
289.937
289.947
289.959
289.972
289.917
289.926
289.936
289.949
289.963
289.907
289.915
289.925
289.938
289.953
289.896
289.904
289.914
289.928
289.944
289.885
289.892
289.903
289.918
289.934
289.874
289.881
289.893
289.907
289.924
289.863
289.87
289.882
289.897
289.915
289.851
289.859
289.871
289.887
289.905
289.841
289.849
289.861
289.878
289.896
289.831
289.839
289.852
289.869
289.888
289.821
289.83
289.843
289.861
289.88
289.814
289.822
289.836
289.853
289.873
289.807
289.816
289.829
289.847
289.867
289.802
289.81
289.823
289.841
289.861
289.799
289.805
289.817
289.835
289.856
289.795
289.801
289.811
289.828
289.85
289.79
289.795
289.803
289.817
289.84
289.782
289.785
289.791
289.803
289.825
289.771
289.771
289.775
289.785
289.805
289.757
289.755
289.758
289.768
289.788
289.746
289.745
289.749
289.759
289.778
289.742
289.744
289.75
289.76
289.779
289.744
289.748
289.756
289.767
289.784
289.748
289.755
289.763
289.775
289.79
290.213
290.202
290.181
290.155
290.135
290.215
290.208
290.186
290.158
290.136
290.211
290.194
290.141
290.117
290.109
290.087
290.093
290.097
290.077
290.086
290.091
290.069
290.077
290.082
290.061
290.066
290.071
290.052
290.055
290.059
290.043
290.043
290.047
290.033
290.032
290.036
290.022
290.021
290.024
289.994
290.007
290.008
290.013
289.979
289.99
289.994
290
289.964
289.973
289.98
289.988
289.948
289.957
289.965
289.976
289.934
289.942
289.952
289.964
289.919
289.928
289.939
289.953
289.971
289.906
289.914
289.926
289.941
289.961
289.893
289.901
289.913
289.93
289.95
289.88
289.888
289.901
289.919
289.94
289.867
289.875
289.889
289.908
289.93
289.854
289.862
289.877
289.897
289.92
289.841
289.849
289.865
289.886
289.91
289.828
289.837
289.853
289.875
289.901
289.815
289.825
289.842
289.865
289.891
289.804
289.815
289.832
289.856
289.883
289.795
289.805
289.823
289.847
289.875
289.787
289.797
289.815
289.84
289.868
289.78
289.791
289.808
289.833
289.862
289.775
289.786
289.802
289.827
289.856
289.771
289.781
289.797
289.819
289.85
289.767
289.776
289.791
289.811
289.841
289.762
289.769
289.782
289.801
289.829
289.754
289.758
289.768
289.785
289.812
289.74
289.741
289.748
289.762
289.788
289.722
289.719
289.723
289.736
289.762
289.704
289.699
289.702
289.714
289.739
289.694
289.691
289.694
289.707
289.732
289.698
289.699
289.705
289.719
289.743
289.711
289.716
289.725
289.739
289.761
289.731
289.737
289.747
289.76
289.778
290.218
290.213
290.202
290.183
290.163
290.218
290.216
290.207
290.191
290.172
290.217
290.209
290.178
290.154
290.139
290.106
290.111
290.115
290.091
290.098
290.103
290.077
290.083
290.088
290.064
290.067
290.073
290.053
290.054
290.058
290.042
290.041
290.044
290.03
290.028
290.03
290.016
290.013
290.017
289.983
289.998
289.998
290.002
289.968
289.978
289.981
289.988
289.95
289.958
289.964
289.974
289.932
289.939
289.947
289.96
289.914
289.921
289.931
289.946
289.897
289.904
289.916
289.933
289.881
289.888
289.901
289.921
289.947
289.865
289.873
289.887
289.908
289.936
289.85
289.858
289.873
289.896
289.925
289.835
289.843
289.86
289.884
289.915
289.82
289.828
289.847
289.872
289.905
289.805
289.814
289.834
289.861
289.895
289.791
289.802
289.821
289.85
289.885
289.778
289.79
289.81
289.84
289.876
289.767
289.779
289.8
289.831
289.868
289.757
289.77
289.791
289.822
289.861
289.749
289.763
289.784
289.814
289.853
289.743
289.757
289.777
289.806
289.844
289.738
289.751
289.771
289.799
289.835
289.733
289.744
289.763
289.789
289.824
289.726
289.736
289.751
289.776
289.81
289.716
289.722
289.735
289.757
289.79
289.7
289.703
289.712
289.73
289.761
289.679
289.677
289.682
289.697
289.726
289.653
289.648
289.65
289.663
289.691
289.632
289.625
289.627
289.638
289.665
289.626
289.621
289.623
289.636
289.661
289.641
289.642
289.648
289.662
289.688
289.672
289.677
289.687
289.703
289.728
289.708
289.716
289.727
289.742
289.763
290.221
290.219
290.212
290.2
290.184
290.222
290.221
290.216
290.207
290.194
290.221
290.217
290.2
290.183
290.168
290.129
290.134
290.136
290.101
290.108
290.113
290.08
290.085
290.091
290.065
290.066
290.072
290.052
290.051
290.055
290.04
290.037
290.039
290.027
290.022
290.023
290.011
290.005
290.006
289.975
289.99
289.987
289.99
289.957
289.966
289.967
289.973
289.936
289.942
289.947
289.956
289.914
289.92
289.927
289.94
289.893
289.899
289.908
289.924
289.873
289.879
289.89
289.909
289.854
289.86
289.874
289.895
289.835
289.843
289.858
289.882
289.917
289.818
289.826
289.842
289.869
289.907
289.801
289.81
289.828
289.856
289.896
289.784
289.794
289.813
289.843
289.886
289.768
289.779
289.8
289.831
289.875
289.753
289.765
289.788
289.82
289.865
289.739
289.753
289.776
289.81
289.855
289.727
289.742
289.765
289.8
289.845
289.717
289.732
289.756
289.79
289.835
289.708
289.723
289.747
289.781
289.826
289.7
289.714
289.737
289.77
289.814
289.692
289.705
289.726
289.757
289.8
289.683
289.694
289.712
289.741
289.782
289.671
289.679
289.693
289.718
289.757
289.655
289.658
289.668
289.689
289.724
289.633
289.632
289.638
289.654
289.685
289.606
289.601
289.604
289.617
289.643
289.579
289.572
289.573
289.583
289.606
289.559
289.552
289.552
289.561
289.583
289.559
289.554
289.555
289.564
289.585
289.588
289.587
289.591
289.603
289.626
289.637
289.642
289.651
289.667
289.69
289.689
289.698
289.709
289.725
289.747
290.225
290.223
290.219
290.211
290.199
290.227
290.225
290.222
290.216
290.208
290.225
290.222
290.211
290.199
290.188
290.152
290.154
290.152
290.106
290.112
290.118
290.08
290.083
290.09
290.064
290.064
290.068
290.051
290.048
290.049
290.039
290.032
290.031
290.024
290.016
290.014
290.006
289.997
289.995
289.958
289.968
289.981
289.976
289.976
289.947
289.954
289.953
289.957
289.922
289.926
289.929
289.937
289.896
289.9
289.905
289.918
289.871
289.875
289.884
289.9
289.847
289.852
289.863
289.883
289.825
289.831
289.845
289.868
289.804
289.811
289.827
289.853
289.785
289.793
289.81
289.838
289.879
289.766
289.775
289.794
289.824
289.867
289.748
289.758
289.779
289.811
289.856
289.73
289.742
289.764
289.797
289.844
289.714
289.727
289.75
289.784
289.833
289.699
289.712
289.736
289.772
289.821
289.685
289.699
289.723
289.759
289.809
289.672
289.686
289.71
289.746
289.796
289.66
289.673
289.696
289.731
289.78
289.648
289.661
289.682
289.714
289.762
289.637
289.647
289.665
289.695
289.739
289.623
289.63
289.645
289.671
289.711
289.607
289.611
289.621
289.642
289.677
289.588
289.587
289.594
289.61
289.639
289.565
289.561
289.564
289.576
289.6
289.54
289.535
289.536
289.544
289.563
289.519
289.513
289.512
289.518
289.534
289.505
289.5
289.499
289.504
289.517
289.511
289.507
289.506
289.51
289.523
289.548
289.546
289.548
289.555
289.569
289.611
289.616
289.624
289.637
289.656
289.676
289.685
289.697
289.713
289.732
290.229
290.227
290.224
290.218
290.21
290.232
290.23
290.227
290.223
290.217
290.229
290.227
290.219
290.209
290.199
290.167
290.16
290.157
290.105
290.11
290.115
290.077
290.08
290.085
290.062
290.06
290.061
290.051
290.044
290.042
290.038
290.028
290.023
290.022
290.01
290.004
290.002
289.99
289.984
289.955
289.964
289.974
289.966
289.962
289.934
289.938
289.942
289.938
289.939
289.908
289.91
289.91
289.916
289.878
289.879
289.883
289.893
289.849
289.851
289.857
289.872
289.822
289.825
289.835
289.853
289.797
289.802
289.814
289.836
289.774
289.78
289.794
289.819
289.753
289.76
289.776
289.802
289.733
289.741
289.758
289.786
289.829
289.713
289.722
289.74
289.77
289.816
289.694
289.704
289.723
289.755
289.802
289.676
289.686
289.706
289.738
289.787
289.658
289.669
289.689
289.722
289.771
289.641
289.652
289.672
289.704
289.753
289.626
289.636
289.655
289.686
289.734
289.611
289.62
289.637
289.667
289.712
289.596
289.604
289.619
289.645
289.687
289.582
289.587
289.599
289.621
289.658
289.567
289.569
289.578
289.596
289.627
289.55
289.55
289.556
289.569
289.594
289.533
289.531
289.533
289.542
289.561
289.515
289.511
289.511
289.517
289.531
289.498
289.493
289.492
289.496
289.506
289.483
289.479
289.478
289.48
289.487
289.477
289.472
289.47
289.471
289.476
289.486
289.481
289.478
289.477
289.481
289.525
289.522
289.519
289.519
289.524
289.598
289.602
289.607
289.615
289.627
289.669
289.678
289.69
289.703
289.719
290.234
290.232
290.228
290.224
290.217
290.238
290.235
290.232
290.228
290.223
290.234
290.231
290.223
290.212
290.202
290.162
290.153
290.151
290.1
290.103
290.107
290.074
290.074
290.077
290.061
290.056
290.054
290.051
290.041
290.035
290.038
290.025
290.016
290.021
290.006
289.995
289.999
289.983
289.973
289.953
289.96
289.968
289.956
289.948
289.929
289.931
289.931
289.924
289.921
289.897
289.896
289.895
289.892
289.893
289.861
289.859
289.86
289.867
289.828
289.828
289.831
289.843
289.798
289.799
289.806
289.821
289.772
289.774
289.783
289.8
289.748
289.751
289.761
289.781
289.725
289.729
289.741
289.762
289.703
289.708
289.72
289.743
289.682
289.687
289.7
289.724
289.764
289.661
289.667
289.68
289.705
289.746
289.641
289.647
289.661
289.686
289.727
289.622
289.628
289.641
289.665
289.706
289.604
289.609
289.621
289.644
289.684
289.587
289.591
289.602
289.624
289.661
289.571
289.574
289.583
289.602
289.636
289.555
289.557
289.565
289.58
289.609
289.541
289.542
289.547
289.559
289.582
289.527
289.526
289.529
289.538
289.556
289.514
289.512
289.513
289.518
289.531
289.501
289.498
289.497
289.5
289.509
289.489
289.485
289.484
289.485
289.49
289.477
289.474
289.472
289.472
289.475
289.469
289.465
289.463
289.462
289.463
289.466
289.462
289.459
289.456
289.456
289.477
289.472
289.466
289.461
289.458
289.515
289.508
289.5
289.492
289.488
289.593
289.593
289.592
289.59
289.589
289.667
289.675
289.683
289.692
289.702
290.239
290.236
290.233
290.228
290.223
290.244
290.241
290.237
290.232
290.227
290.239
290.236
290.225
290.21
290.198
290.148
290.14
290.139
290.093
290.094
290.097
290.072
290.069
290.068
290.061
290.053
290.047
290.052
290.039
290.028
290.04
290.023
290.009
290.022
290.004
289.988
289.998
289.979
289.963
289.953
289.959
289.964
289.948
289.935
289.925
289.925
289.923
289.912
289.904
289.889
289.886
289.882
289.875
289.872
289.853
289.847
289.843
289.84
289.842
289.812
289.809
289.809
289.815
289.78
289.778
289.781
289.79
289.752
289.752
289.756
289.767
289.727
289.727
289.732
289.744
289.704
289.704
289.71
289.723
289.681
289.682
289.688
289.702
289.659
289.66
289.666
289.68
289.638
289.639
289.645
289.659
289.687
289.618
289.618
289.623
289.637
289.665
289.598
289.598
289.603
289.616
289.642
289.58
289.579
289.583
289.594
289.619
289.563
289.562
289.564
289.574
289.596
289.547
289.546
289.547
289.555
289.573
289.533
289.531
289.531
289.537
289.551
289.52
289.517
289.517
289.52
289.53
289.508
289.505
289.504
289.505
289.512
289.498
289.495
289.493
289.493
289.496
289.488
289.485
289.483
289.482
289.483
289.479
289.476
289.474
289.472
289.472
289.471
289.468
289.466
289.464
289.462
289.465
289.463
289.46
289.457
289.454
289.466
289.462
289.457
289.452
289.448
289.48
289.472
289.463
289.454
289.448
289.515
289.504
289.491
289.477
289.466
289.585
289.576
289.562
289.546
289.531
289.662
289.666
289.67
289.674
289.677
290.244
290.24
290.236
290.232
290.227
290.25
290.246
290.241
290.235
290.228
290.244
290.239
290.223
290.201
290.186
290.132
290.125
290.124
290.087
290.086
290.085
290.071
290.065
290.06
290.063
290.051
290.041
290.055
290.039
290.023
290.044
290.024
290.005
290.026
290.004
289.983
290
289.977
289.956
289.956
289.961
289.963
289.943
289.925
289.926
289.924
289.919
289.904
289.89
289.887
289.882
289.875
289.863
289.855
289.847
289.84
289.833
289.825
289.822
289.81
289.803
289.797
289.793
289.793
289.771
289.767
289.765
289.766
289.743
289.74
289.739
289.741
289.718
289.715
289.714
289.717
289.694
289.691
289.69
289.694
289.671
289.668
289.667
289.671
289.649
289.646
289.645
289.649
289.628
289.624
289.623
289.626
289.609
289.604
289.602
289.605
289.617
289.59
289.585
289.582
289.584
289.595
289.572
289.567
289.563
289.564
289.573
289.556
289.55
289.546
289.546
289.553
289.541
289.536
289.531
289.53
289.535
289.528
289.522
289.518
289.516
289.518
289.516
289.511
289.506
289.503
289.504
289.505
289.5
289.496
289.493
289.492
289.495
289.492
289.488
289.484
289.482
289.486
289.484
289.481
289.477
289.473
289.479
289.477
289.474
289.47
289.466
289.472
289.47
289.468
289.464
289.46
289.468
289.465
289.462
289.458
289.453
289.47
289.464
289.458
289.452
289.447
289.483
289.473
289.461
289.451
289.443
289.515
289.5
289.482
289.465
289.452
289.575
289.559
289.538
289.514
289.495
289.652
289.652
289.649
289.645
289.642
290.249
290.244
290.24
290.235
290.229
290.256
290.251
290.244
290.233
290.223
290.248
290.24
290.212
290.181
290.166
290.118
290.112
290.109
290.083
290.079
290.075
290.071
290.062
290.053
290.066
290.051
290.037
290.06
290.041
290.021
290.05
290.027
290.004
290.033
290.007
289.981
290.007
289.98
289.954
289.963
289.967
289.967
289.944
289.919
289.931
289.928
289.921
289.902
289.882
289.89
289.884
289.874
289.859
289.845
289.849
289.841
289.832
289.821
289.812
289.812
289.805
289.798
289.79
289.782
289.78
289.774
289.768
289.761
289.755
289.751
289.746
289.741
289.734
289.729
289.721
289.715
289.709
289.704
289.697
289.692
289.685
289.68
289.675
289.669
289.662
289.657
289.654
289.647
289.64
289.634
289.634
289.626
289.619
289.612
289.614
289.606
289.598
289.591
289.596
289.588
289.579
289.572
289.57
289.579
289.57
289.561
289.553
289.551
289.563
289.554
289.545
289.537
289.533
289.548
289.539
289.531
289.523
289.518
289.534
289.526
289.518
289.511
289.505
289.521
289.515
289.508
289.5
289.495
289.51
289.505
289.499
289.492
289.486
289.5
289.496
289.491
289.485
289.479
289.491
289.488
289.485
289.479
289.473
289.483
289.481
289.479
289.474
289.468
289.476
289.475
289.473
289.469
289.462
289.473
289.47
289.467
289.462
289.456
289.475
289.468
289.462
289.455
289.448
289.486
289.473
289.461
289.45
289.442
289.513
289.492
289.472
289.455
289.443
289.563
289.54
289.513
289.488
289.469
289.634
289.625
289.612
289.599
289.588
290.253
290.247
290.241
290.233
290.225
290.261
290.254
290.242
290.224
290.208
290.251
290.238
290.189
290.157
290.143
290.108
290.101
290.096
290.081
290.075
290.067
290.074
290.062
290.049
290.071
290.054
290.035
290.068
290.046
290.022
290.06
290.035
290.006
290.043
290.015
289.985
290.017
289.988
289.956
289.974
289.978
289.977
289.95
289.92
289.942
289.939
289.93
289.908
289.882
289.902
289.895
289.884
289.865
289.846
289.861
289.854
289.844
289.83
289.814
289.825
289.819
289.81
289.799
289.785
289.793
289.788
289.781
289.771
289.758
289.765
289.761
289.755
289.745
289.733
289.741
289.737
289.73
289.72
289.708
289.714
289.707
289.696
289.684
289.692
289.684
289.673
289.661
289.671
289.663
289.651
289.638
289.651
289.642
289.629
289.616
289.632
289.622
289.609
289.595
289.613
289.603
289.589
289.575
289.596
289.584
289.571
289.557
289.545
289.578
289.567
289.555
289.541
289.529
289.562
289.552
289.54
289.527
289.516
289.547
289.538
289.527
289.515
289.504
289.533
289.525
289.516
289.505
289.495
289.52
289.514
289.506
289.497
289.488
289.508
289.504
289.499
289.491
289.482
289.498
289.496
289.492
289.485
289.477
289.489
289.489
289.487
289.481
289.472
289.483
289.483
289.481
289.476
289.467
289.479
289.477
289.475
289.47
289.461
289.479
289.473
289.469
289.461
289.452
289.486
289.473
289.462
289.452
289.443
289.504
289.481
289.462
289.447
289.437
289.542
289.51
289.479
289.457
289.442
289.601
289.574
289.543
289.514
289.489
290.256
290.249
290.24
290.225
290.213
290.265
290.256
290.235
290.205
290.183
290.251
290.224
290.164
290.134
290.122
290.1
290.092
290.084
290.082
290.073
290.061
290.079
290.065
290.047
290.079
290.06
290.037
290.078
290.055
290.027
290.073
290.046
290.013
290.058
290.028
289.993
290.034
290.002
289.966
289.991
289.996
289.994
289.964
289.929
289.961
289.958
289.948
289.923
289.893
289.922
289.916
289.904
289.883
289.859
289.884
289.877
289.866
289.849
289.828
289.848
289.843
289.834
289.82
289.801
289.818
289.814
289.806
289.793
289.775
289.791
289.788
289.781
289.768
289.75
289.766
289.764
289.757
289.744
289.726
289.744
289.742
289.734
289.721
289.702
289.72
289.712
289.698
289.679
289.7
289.69
289.675
289.655
289.679
289.669
289.653
289.633
289.659
289.647
289.631
289.611
289.639
289.627
289.61
289.59
289.619
289.607
289.59
289.571
289.6
289.588
289.571
289.553
289.536
289.582
289.57
289.555
289.538
289.522
289.564
289.553
289.54
289.525
289.51
289.548
289.539
289.527
289.514
289.501
289.533
289.526
289.516
289.505
289.493
289.519
289.515
289.508
289.498
289.487
289.507
289.505
289.501
289.493
289.482
289.497
289.498
289.496
289.489
289.478
289.49
289.492
289.492
289.485
289.473
289.486
289.487
289.487
289.479
289.467
289.485
289.482
289.48
289.471
289.458
289.487
289.477
289.47
289.459
289.446
289.494
289.474
289.46
289.447
289.435
289.514
289.479
289.455
289.439
289.429
289.552
289.508
289.467
289.44
289.432
290.257
290.248
290.232
290.208
290.192
290.268
290.255
290.219
290.177
290.154
290.244
290.204
290.141
290.117
290.104
290.095
290.086
290.075
290.085
290.074
290.058
290.086
290.071
290.049
290.09
290.071
290.043
290.093
290.069
290.037
290.092
290.063
290.026
290.079
290.047
290.008
290.056
290.022
289.982
290.016
290.021
290.018
289.986
289.947
289.988
289.986
289.975
289.947
289.913
289.952
289.946
289.933
289.91
289.882
289.915
289.909
289.898
289.879
289.854
289.881
289.877
289.868
289.852
289.828
289.851
289.849
289.842
289.827
289.804
289.825
289.824
289.817
289.803
289.78
289.801
289.801
289.794
289.78
289.757
289.779
289.779
289.772
289.756
289.733
289.759
289.757
289.749
289.733
289.709
289.736
289.726
289.709
289.684
289.714
289.703
289.685
289.66
289.692
289.68
289.661
289.636
289.67
289.657
289.637
289.613
289.648
289.634
289.614
289.591
289.626
289.612
289.593
289.571
289.604
289.591
289.573
289.553
289.533
289.584
289.572
289.556
289.538
289.519
289.565
289.555
289.541
289.525
289.509
289.546
289.539
289.528
289.514
289.5
289.53
289.526
289.518
289.506
289.493
289.516
289.515
289.511
289.501
289.488
289.505
289.507
289.506
289.497
289.484
289.497
289.502
289.503
289.494
289.479
289.494
289.498
289.5
289.49
289.473
289.493
289.495
289.495
289.482
289.464
289.494
289.491
289.486
289.47
289.452
289.495
289.483
289.473
289.455
289.438
289.5
289.475
289.459
289.441
289.427
289.515
289.474
289.449
289.432
289.423
290.256
290.241
290.216
290.184
290.165
290.269
290.248
290.192
290.147
290.127
290.233
290.184
290.124
290.103
290.09
290.094
290.083
290.069
290.091
290.079
290.059
290.098
290.081
290.056
290.106
290.085
290.055
290.113
290.088
290.052
290.116
290.085
290.045
290.107
290.073
290.029
290.086
290.05
290.006
290.048
290.053
290.05
290.016
289.973
290.023
290.021
290.009
289.98
289.942
289.989
289.984
289.971
289.946
289.914
289.954
289.95
289.938
289.918
289.888
289.922
289.919
289.911
289.893
289.865
289.893
289.892
289.886
289.87
289.843
289.867
289.867
289.862
289.847
289.82
289.843
289.844
289.839
289.824
289.797
289.821
289.822
289.817
289.8
289.773
289.799
289.8
289.793
289.776
289.748
289.777
289.777
289.769
289.751
289.722
289.754
289.744
289.725
289.695
289.73
289.719
289.698
289.668
289.705
289.692
289.671
289.641
289.68
289.666
289.644
289.616
289.654
289.64
289.619
289.592
289.629
289.616
289.595
289.571
289.605
289.592
289.574
289.552
289.53
289.582
289.572
289.556
289.537
289.518
289.561
289.553
289.54
289.524
289.507
289.541
289.537
289.528
289.515
289.499
289.525
289.525
289.52
289.509
289.493
289.511
289.516
289.515
289.505
289.489
289.503
289.511
289.513
289.503
289.485
289.501
289.509
289.513
289.5
289.48
289.502
289.51
289.511
289.494
289.471
289.505
289.51
289.505
289.482
289.458
289.506
289.506
289.493
289.466
289.443
289.506
289.497
289.476
289.448
289.429
289.509
289.487
289.46
289.434
289.421
290.25
290.227
290.192
290.159
290.138
290.267
290.227
290.162
290.125
290.106
290.22
290.166
290.114
290.095
290.08
290.098
290.085
290.067
290.102
290.087
290.064
290.113
290.095
290.066
290.127
290.105
290.071
290.139
290.113
290.073
290.148
290.114
290.07
290.142
290.105
290.057
290.123
290.084
290.036
290.088
290.094
290.089
290.053
290.007
290.065
290.064
290.051
290.02
289.979
290.032
290.029
290.016
289.99
289.953
290
289.996
289.985
289.964
289.93
289.968
289.967