/*--------------------------------*- C++ -*----------------------------------*\
| =========                 |                                                 |
| \\      /  F ield         | OpenFOAM: The Open Source CFD Toolbox           |
|  \\    /   O peration     | Version:  2.3.1                                 |
|   \\  /    A nd           | Web:      www.OpenFOAM.org                      |
|    \\/     M anipulation  |                                                 |
\*---------------------------------------------------------------------------*/
FoamFile
{
    version     2.0;
    format      ascii;
    class       volVectorField;
    location    "600";
    object      U;
}
// * * * * * * * * * * * * * * * * * * * * * * * * * * * * * * * * * * * * * //

dimensions      [0 1 -1 0 0 0 0];

internalField   nonuniform List<vector> 
6852
(
(0.205207 -0.03854 0.0495354)
(0.18943 -0.0258792 0.0436553)
(0.159073 -0.015048 0.0352194)
(0.119969 -0.00776218 0.0257907)
(0.342184 -0.143159 0.0424375)
(0.34614 -0.109323 0.0461905)
(0.327161 -0.0734092 0.0468078)
(0.288441 -0.041032 0.0436493)
(0.381034 -0.207355 -0.00115811)
(0.39782 -0.16764 0.0141088)
(0.385411 -0.121219 0.0272377)
(0.348537 -0.0759115 0.0354005)
(0.401806 -0.156255 -0.072551)
(0.438644 -0.129464 -0.041016)
(0.436112 -0.0956421 -0.00953368)
(0.400408 -0.0597371 0.0144773)
(0.396398 -0.0437323 -0.094408)
(0.446019 -0.032853 -0.070171)
(0.455147 -0.0144178 -0.0397596)
(0.427838 0.0081818 -0.01043)
(0.402932 0.0649556 -0.0964993)
(0.457183 0.071613 -0.0732281)
(0.470073 0.0800865 -0.0440605)
(0.445397 0.089158 -0.0146677)
(0.403833 0.159208 -0.0841022)
(0.458958 0.160984 -0.0610458)
(0.472526 0.162669 -0.0338125)
(0.448924 0.163362 -0.00701244)
(0.400029 0.242527 -0.0773528)
(0.455063 0.239682 -0.0531657)
(0.467446 0.235708 -0.0258331)
(0.443087 0.229234 0.000115943)
(0.388116 0.221072 0.0182437)
(0.390076 0.322177 -0.0725656)
(0.444706 0.313069 -0.0467624)
(0.455139 0.30196 -0.0185524)
(0.42932 0.287579 0.00691725)
(0.37412 0.272186 0.0231014)
(0.37322 0.396117 -0.0666603)
(0.426248 0.379806 -0.0395166)
(0.434254 0.360351 -0.0107305)
(0.407066 0.33734 0.0136311)
(0.352301 0.314926 0.0275414)
(0.350171 0.47016 -0.0585252)
(0.399855 0.442543 -0.0300416)
(0.405083 0.41154 -0.00160753)
(0.377111 0.378589 0.0202129)
(0.323728 0.348857 0.0313345)
(0.318857 0.527918 -0.0357833)
(0.36107 0.489384 -0.0126577)
(0.364684 0.448008 0.0106945)
(0.338291 0.407266 0.0270221)
(0.288483 0.371936 0.0343457)
(0.283067 0.554235 -0.0127229)
(0.317301 0.510685 0.00468112)
(0.319285 0.464276 0.0216197)
(0.295033 0.420392 0.0321692)
(0.249833 0.382915 0.0359052)
(0.245653 0.555414 0.00664408)
(0.272447 0.510714 0.0186648)
(0.272845 0.464148 0.0289138)
(0.250688 0.420277 0.0347051)
(0.210464 0.383329 0.0356658)
(0.208476 0.537423 0.0197489)
(0.228931 0.495097 0.0268929)
(0.227881 0.451137 0.0322449)
(0.207837 0.409812 0.034683)
(0.172475 0.375374 0.0337497)
(0.17301 0.508206 0.0259379)
(0.188308 0.469579 0.0297689)
(0.186097 0.429622 0.0321472)
(0.168051 0.392251 0.0326118)
(0.13719 0.361511 0.0305637)
(0.140219 0.473345 0.02705)
(0.1514 0.438781 0.0289454)
(0.148314 0.40336 0.0297838)
(0.132047 0.370477 0.0292003)
(0.105272 0.343964 0.0266241)
(0.11042 0.436756 0.0251482)
(0.118361 0.406159 0.0260932)
(0.1146 0.37515 0.0262069)
(0.0999516 0.346751 0.0251321)
(0.076881 0.324504 0.0224139)
(0.0834096 0.400951 0.0218702)
(0.0888425 0.373882 0.0223861)
(0.084639 0.346871 0.0221838)
(0.0715321 0.322639 0.0209351)
(0.0518557 0.304389 0.0182973)
(0.0587515 0.36727 0.0182211)
(0.0623046 0.343186 0.0185469)
(0.0579217 0.319638 0.0182178)
(0.0463576 0.2991 0.016956)
(0.0298421 0.284401 0.0145022)
(0.0359099 0.336276 0.0147389)
(0.0381378 0.314617 0.0149677)
(0.0338664 0.293979 0.0145896)
(0.0238991 0.276614 0.0133801)
(0.0104172 0.264997 0.0111346)
(0.0143209 0.307979 0.0116666)
(0.0157337 0.288257 0.0118252)
(0.011892 0.270042 0.0114174)
(0.00363611 0.25535 0.0102604)
(-0.0070981 0.24625 0.00812313)
(-0.00655132 0.282131 0.00909503)
(-0.00546344 0.263871 0.00915251)
(-0.00860217 0.24763 0.00867436)
(-0.0150173 0.235278 0.00751799)
(-0.0227226 0.228156 0.00553543)
(-0.0271419 0.258127 0.00701204)
(-0.0259238 0.241161 0.00690454)
(-0.0279952 0.226658 0.00631672)
(-0.0322988 0.216149 0.00517471)
(-0.0368479 0.210257 0.00337991)
(-0.0477643 0.235433 0.00538016)
(-0.0459502 0.219594 0.00504453)
(-0.0465498 0.206575 0.00433131)
(-0.0484478 0.197482 0.00323471)
(-0.0497522 0.192266 0.00165208)
(-0.0685691 0.213434 0.00406419)
(-0.0656654 0.19864 0.00352914)
(-0.0644006 0.186905 0.00273829)
(-0.0636559 0.178856 0.00173781)
(-0.0617055 0.17388 0.000377356)
(-0.0895762 0.191557 0.0029308)
(-0.0850779 0.177786 0.00229291)
(-0.0816002 0.167175 0.00153366)
(-0.0780749 0.15988 0.000670932)
(-0.0729603 0.154844 -0.000539796)
(-0.110632 0.169274 0.00198297)
(-0.104095 0.156584 0.00131489)
(-0.0981446 0.147008 0.000641605)
(-0.0917967 0.140284 -0.000109428)
(-0.0836687 0.135039 -0.00129681)
(-0.131389 0.146124 0.00121413)
(-0.122482 0.134683 0.000573439)
(-0.113926 0.126169 -1.95784e-05)
(-0.104819 0.119981 -0.000772475)
(-0.0938717 0.114584 -0.00214857)
(-0.151325 0.121815 0.000598473)
(-0.139867 0.111893 -1.34253e-05)
(-0.128709 0.104588 -0.000642846)
(-0.116982 0.0990851 -0.00164573)
(-0.103454 0.0938331 -0.00353698)
(-0.169746 0.0962809 -6.91755e-06)
(-0.155732 0.0882558 -0.000725741)
(-0.142079 0.0825008 -0.0016725)
(-0.127933 0.0781296 -0.00330088)
(-0.112274 0.0736483 -0.00598608)
(-0.18578 0.0698909 -0.00101141)
(-0.169336 0.0643277 -0.0021357)
(-0.153387 0.0606846 -0.0037608)
(-0.137254 0.0581524 -0.006199)
(-0.119719 0.0561368 -0.00903415)
(-0.198353 0.043508 -0.00318194)
(-0.179768 0.0410272 -0.00495996)
(-0.161922 0.0403987 -0.00709296)
(-0.143734 0.0415363 -0.00931571)
(-0.123604 0.0408478 -0.0113048)
(-0.206637 0.0189386 -0.00666635)
(-0.186187 0.0208218 -0.0083009)
(-0.166083 0.0240616 -0.00978705)
(-0.145109 0.0264704 -0.0109951)
(-0.121879 0.0258102 -0.0120483)
(-0.210327 -0.00126068 -0.00956918)
(-0.187131 0.00365638 -0.010025)
(-0.163879 0.00844488 -0.0104847)
(-0.139768 0.0116555 -0.0110903)
(-0.114006 0.0109827 -0.0118233)
(-0.206826 -0.020248 -0.0112463)
(-0.180287 -0.0139361 -0.0109216)
(-0.15385 -0.00781933 -0.0108668)
(-0.127215 -0.00347297 -0.011157)
(-0.0996758 -0.0037811 -0.011631)
(-0.197788 -0.036302 -0.0140338)
(-0.168085 -0.0289191 -0.0135288)
(-0.138551 -0.0219062 -0.0130822)
(-0.109336 -0.0168399 -0.0127037)
(-0.0806205 -0.0164027 -0.0122838)
(-0.185778 -0.0487565 -0.0197714)
(-0.152483 -0.0413527 -0.0191375)
(-0.119335 -0.0340829 -0.0181033)
(-0.0872407 -0.028323 -0.0166572)
(-0.0572289 -0.0269845 -0.014722)
(-0.171076 -0.0537427 -0.0288015)
(-0.134512 -0.047337 -0.0282206)
(-0.0977545 -0.0408087 -0.0267679)
(-0.0625264 -0.0351116 -0.0242376)
(-0.030691 -0.0333695 -0.020384)
(-0.149458 -0.0473534 -0.0382173)
(-0.112155 -0.0432572 -0.0383197)
(-0.0737258 -0.0387273 -0.0372142)
(-0.0367808 -0.0341825 -0.0342609)
(-0.00246058 -0.0327827 -0.0282841)
(-0.0998598 -0.0227912 -0.0370607)
(-0.0719027 -0.0210197 -0.0388451)
(-0.0410339 -0.0187262 -0.0392308)
(-0.010236 -0.0160863 -0.0365878)
(0.0187059 -0.0152441 -0.0296012)
(0.289186 -0.0474884 0.146808)
(0.294403 -0.0325858 0.141809)
(0.279804 -0.0165192 0.133558)
(0.244917 -0.00363473 0.119883)
(0.194954 0.00395606 0.101245)
(0.393839 -0.114432 0.0950147)
(0.402868 -0.0789398 0.106644)
(0.389066 -0.0435364 0.1142)
(0.356392 -0.0131765 0.114806)
(0.405024 -0.159784 -0.0295267)
(0.428509 -0.119557 0.0091723)
(0.422108 -0.0741965 0.0459961)
(0.393399 -0.0314468 0.0738921)
(0.382069 -0.101754 -0.213572)
(0.425371 -0.0630887 -0.139222)
(0.4294 -0.0243383 -0.0679258)
(0.410641 0.0110557 -0.0101027)
(0.369199 -0.000424941 -0.250684)
(0.423779 0.0201531 -0.190495)
(0.433893 0.0469316 -0.122962)
(0.416759 0.0733795 -0.0585198)
(0.378981 0.0821657 -0.248784)
(0.436865 0.0969218 -0.193349)
(0.448906 0.117159 -0.129344)
(0.432709 0.137459 -0.0669078)
(0.382119 0.169035 -0.231555)
(0.44162 0.179319 -0.177413)
(0.455352 0.194346 -0.117336)
(0.441122 0.208804 -0.0587076)
(0.38037 0.244376 -0.222913)
(0.441197 0.252417 -0.166459)
(0.45553 0.265071 -0.106093)
(0.442744 0.275871 -0.0481978)
(0.37211 0.322381 -0.219073)
(0.433955 0.326352 -0.158667)
(0.448022 0.334625 -0.0957327)
(0.436478 0.340225 -0.0371052)
(0.404291 0.338803 0.0114525)
(0.356368 0.397083 -0.213701)
(0.417681 0.396667 -0.149348)
(0.431108 0.399616 -0.0839864)
(0.421474 0.399312 -0.0249571)
(0.390152 0.39221 0.0223267)
(0.334535 0.481389 -0.204435)
(0.393198 0.468686 -0.135189)
(0.40577 0.46131 -0.0690004)
(0.398922 0.452433 -0.0109759)
(0.368758 0.438668 0.0336545)
(0.306007 0.555444 -0.153303)
(0.356379 0.529251 -0.0998716)
(0.371234 0.512021 -0.0444683)
(0.369254 0.495164 0.00670456)
(0.341093 0.475795 0.0455313)
(0.277507 0.599366 -0.103302)
(0.32014 0.568687 -0.0637536)
(0.336718 0.547091 -0.0190308)
(0.336049 0.525109 0.0237581)
(0.310297 0.502372 0.0558643)
(0.250739 0.626996 -0.0611166)
(0.286931 0.595054 -0.0319028)
(0.304094 0.57018 0.00385638)
(0.302395 0.544492 0.0381261)
(0.278538 0.519518 0.0636723)
(0.226581 0.643321 -0.028885)
(0.257478 0.610588 -0.00625331)
(0.272764 0.583054 0.0220199)
(0.269657 0.555042 0.048768)
(0.247088 0.528647 0.0685227)
(0.204455 0.650784 -0.00531037)
(0.231127 0.617897 0.0129359)
(0.242839 0.587873 0.0351234)
(0.238328 0.558356 0.0557555)
(0.216668 0.531255 0.0705629)
(0.183646 0.65164 0.0114864)
(0.205552 0.617909 0.0261769)
(0.214318 0.586436 0.0435881)
(0.208439 0.555923 0.0594378)
(0.187671 0.528738 0.0701744)
(0.162782 0.646569 0.0225638)
(0.180767 0.612505 0.0345357)
(0.186934 0.580051 0.0483571)
(0.179974 0.549061 0.0604393)
(0.160267 0.522304 0.0678858)
(0.141792 0.637069 0.0291912)
(0.156546 0.602884 0.0392119)
(0.160546 0.569849 0.0503235)
(0.152917 0.538856 0.0594145)
(0.134491 0.512934 0.0642389)
(0.120717 0.624291 0.032718)
(0.132767 0.590052 0.0413253)
(0.135075 0.556784 0.0502855)
(0.127205 0.526169 0.0569706)
(0.110278 0.501394 0.059716)
(0.099526 0.609076 0.0342687)
(0.10935 0.574801 0.0417277)
(0.110441 0.541577 0.0488968)
(0.102724 0.511641 0.0536137)
(0.0875018 0.488261 0.0547147)
(0.0781427 0.591999 0.034612)
(0.0862044 0.557694 0.0410421)
(0.086532 0.524734 0.046659)
(0.0793329 0.495725 0.0497305)
(0.0659619 0.47394 0.0494892)
(0.0564593 0.573372 0.034294)
(0.0632204 0.539065 0.0397041)
(0.0632116 0.506569 0.0439066)
(0.0568353 0.478719 0.0455539)
(0.045456 0.458663 0.0442405)
(0.0343379 0.553315 0.0336467)
(0.0402706 0.519059 0.0380132)
(0.040318 0.487239 0.0408774)
(0.035044 0.46076 0.0412985)
(0.0258003 0.442567 0.039164)
(0.0116469 0.531731 0.0328)
(0.0171866 0.497681 0.03612)
(0.017701 0.466805 0.0377444)
(0.0138123 0.441944 0.0371283)
(0.0068555 0.425776 0.0343776)
(-0.0117725 0.508784 0.0317977)
(-0.00612082 0.475058 0.0340543)
(-0.00474666 0.445312 0.0345566)
(-0.00702054 0.422321 0.0330781)
(-0.0116333 0.408412 0.0298686)
(-0.0358793 0.483964 0.0306689)
(-0.0296698 0.451084 0.03182)
(-0.0270968 0.423003 0.0313169)
(-0.0275249 0.402253 0.0291764)
(-0.0296764 0.390572 0.0256876)
(-0.0606185 0.457248 0.0293561)
(-0.0534156 0.425799 0.0294237)
(-0.0493224 0.3999 0.0280653)
(-0.0476938 0.381699 0.0254412)
(-0.0472559 0.372079 0.0217792)
(-0.0858172 0.428595 0.0277756)
(-0.0772141 0.399282 0.0268463)
(-0.071319 0.376119 0.024799)
(-0.0674602 0.36069 0.0218243)
(-0.0643131 0.352762 0.0180065)
(-0.111189 0.398099 0.0258275)
(-0.100833 0.371698 0.024036)
(-0.0929162 0.35179 0.0214469)
(-0.086705 0.339188 0.0181748)
(-0.0807752 0.332315 0.0141129)
(-0.136348 0.366016 0.0233751)
(-0.123983 0.343297 0.0208681)
(-0.113909 0.327007 0.017824)
(-0.105288 0.316968 0.0141997)
(-0.0963751 0.310188 0.00971468)
(-0.160865 0.332722 0.0202193)
(-0.146368 0.31426 0.0171099)
(-0.134078 0.301616 0.0136017)
(-0.122788 0.293469 0.00949515)
(-0.110337 0.28474 0.0046125)
(-0.184366 0.298518 0.0160048)
(-0.167625 0.284576 0.0123373)
(-0.152683 0.275038 0.00837642)
(-0.13799 0.266743 0.00395446)
(-0.121318 0.255285 -0.000971872)
(-0.206119 0.26341 0.010316)
(-0.186508 0.253044 0.0063245)
(-0.168009 0.244966 0.00223585)
(-0.149158 0.236457 -0.00206932)
(-0.128237 0.222734 -0.00677657)
(-0.224182 0.225802 0.00304793)
(-0.200769 0.218598 -0.000684761)
(-0.178162 0.212345 -0.0044078)
(-0.155123 0.204252 -0.00827428)
(-0.130317 0.189543 -0.0123188)
(-0.23612 0.186295 -0.00603397)
(-0.208741 0.183082 -0.00887672)
(-0.181989 0.179415 -0.0116497)
(-0.154985 0.172002 -0.0144974)
(-0.126748 0.156321 -0.017332)
(-0.240655 0.148288 -0.0167511)
(-0.209294 0.148409 -0.0182725)
(-0.178455 0.146572 -0.0196127)
(-0.14771 0.139818 -0.020877)
(-0.116604 0.123899 -0.0219391)
(-0.23711 0.110587 -0.0291909)
(-0.201527 0.113082 -0.0292213)
(-0.166543 0.112971 -0.0288585)
(-0.13229 0.107525 -0.028095)
(-0.0989543 0.092642 -0.0267409)
(-0.225079 0.0734798 -0.0451581)
(-0.185102 0.0773939 -0.0437722)
(-0.145762 0.0787938 -0.0415945)
(-0.107926 0.0754123 -0.0384528)
(-0.0725579 0.063271 -0.0340594)
(-0.20494 0.0341748 -0.0661022)
(-0.161043 0.0384148 -0.0640193)
(-0.117327 0.0410704 -0.0606792)
(-0.0754536 0.0408178 -0.0556308)
(-0.0368264 0.0331175 -0.0481893)
(-0.157631 0.00615262 -0.0898387)
(-0.116084 0.0096895 -0.0893937)
(-0.0723055 0.0128165 -0.0867829)
(-0.0297813 0.0152717 -0.0808629)
(0.0159015 0.0119996 -0.0691211)
(0.297365 -0.0121475 0.206309)
(0.298325 0.00116406 0.197339)
(0.280201 0.0127083 0.183988)
(0.244681 0.0199553 0.164026)
(0.196644 0.0228592 0.139431)
(0.363294 -0.0636564 0.109579)
(0.386006 -0.0309103 0.127297)
(0.389314 0.00434368 0.149688)
(0.369481 0.0326625 0.157999)
(0.332937 0.0522674 0.15489)
(0.376126 -0.0625189 -0.0630416)
(0.389578 -0.00682729 -0.00269298)
(0.37499 0.0423823 0.0489265)
(0.344219 0.0792212 0.0865794)
(0.327296 -0.031343 -0.348225)
(0.365547 0.0348389 -0.220532)
(0.35091 0.0872984 -0.109184)
(0.320356 0.126119 -0.0220044)
(0.311241 0.034616 -0.395826)
(0.362525 0.0726489 -0.279189)
(0.349211 0.117356 -0.169159)
(0.315609 0.157422 -0.0765478)
(0.323132 0.0835113 -0.393563)
(0.375468 0.117246 -0.289315)
(0.35925 0.160553 -0.185048)
(0.32199 0.200047 -0.0939252)
(0.324909 0.153318 -0.373698)
(0.377452 0.17962 -0.274057)
(0.360689 0.216863 -0.176644)
(0.324069 0.251963 -0.0903156)
(0.322167 0.209486 -0.36355)
(0.375141 0.234884 -0.261599)
(0.356868 0.271423 -0.16502)
(0.321191 0.30414 -0.0801997)
(0.312197 0.276428 -0.362122)
(0.36527 0.297951 -0.253909)
(0.344413 0.330063 -0.153614)
(0.310291 0.357172 -0.0683552)
(0.292794 0.339231 -0.359339)
(0.343197 0.358836 -0.243184)
(0.320073 0.38612 -0.139112)
(0.289785 0.406714 -0.0542123)
(0.250717 0.416732 0.0127516)
(0.264543 0.423861 -0.352353)
(0.30872 0.425228 -0.223308)
(0.284614 0.439304 -0.119264)
(0.26136 0.45044 -0.0370417)
(0.229585 0.455104 0.0280296)
(0.221847 0.494471 -0.257119)
(0.253221 0.474361 -0.166985)
(0.239166 0.47819 -0.0856751)
(0.227748 0.482851 -0.0146647)
(0.204353 0.484489 0.0449647)
(0.183691 0.518105 -0.175206)
(0.206444 0.496837 -0.115031)
(0.200336 0.499952 -0.0526585)
(0.197508 0.503707 0.00808631)
(0.17984 0.505195 0.0606437)
(0.151544 0.530429 -0.113279)
(0.168827 0.510876 -0.0726854)
(0.168603 0.513455 -0.0238781)
(0.170404 0.517557 0.0282582)
(0.157453 0.519818 0.0731552)
(0.126396 0.537033 -0.0698685)
(0.139992 0.519827 -0.040635)
(0.145789 0.523133 -7.56766e-05)
(0.147579 0.527359 0.0445077)
(0.137659 0.529997 0.0818812)
(0.106757 0.542447 -0.0400427)
(0.118209 0.526881 -0.0166495)
(0.126237 0.530402 0.0187294)
(0.128067 0.534559 0.0562919)
(0.119903 0.536859 0.0868643)
(0.0909388 0.54812 -0.0191799)
(0.103032 0.534881 0.00182268)
(0.109457 0.53649 0.0326386)
(0.111034 0.539616 0.0639219)
(0.103718 0.541054 0.0885823)
(0.0784634 0.554942 -0.00391231)
(0.0891225 0.541875 0.0155407)
(0.0944683 0.541523 0.0422074)
(0.0954711 0.542792 0.0680856)
(0.0886431 0.543014 0.0876869)
(0.0672438 0.561686 0.00727701)
(0.0758871 0.547844 0.025289)
(0.0803296 0.545108 0.0482933)
(0.0807074 0.544136 0.0695517)
(0.0743279 0.542993 0.0848483)
(0.0553233 0.56705 0.0153737)
(0.0626325 0.552289 0.0319942)
(0.0663372 0.546947 0.0517647)
(0.0663136 0.543656 0.0690353)
(0.0605128 0.541155 0.080668)
(0.042419 0.57065 0.0212522)
(0.0488504 0.554723 0.0365109)
(0.0521269 0.546831 0.0533574)
(0.0520329 0.541342 0.0671351)
(0.0470119 0.53762 0.0756376)
(0.0283749 0.572086 0.0256738)
(0.0343339 0.554871 0.0395197)
(0.0375377 0.544634 0.0536413)
(0.0377205 0.537202 0.0643124)
(0.0336883 0.532483 0.0701192)
(0.0131521 0.5711 0.029192)
(0.0190222 0.552595 0.0415004)
(0.0225135 0.540298 0.0530182)
(0.0232884 0.531262 0.0608926)
(0.0204332 0.525826 0.0643899)
(-0.00321608 0.567717 0.0320803)
(0.00296451 0.547787 0.0427583)
(0.00704317 0.533792 0.0517629)
(0.00868078 0.523564 0.057116)
(0.00716579 0.517738 0.0586441)
(-0.0205819 0.561654 0.0345785)
(-0.0138161 0.540603 0.0433567)
(-0.00886702 0.525239 0.0499747)
(-0.00614185 0.514227 0.053097)
(-0.00620025 0.508349 0.0529628)
(-0.0388692 0.552846 0.036704)
(-0.0311964 0.530932 0.0434085)
(-0.025146 0.514687 0.0477239)
(-0.0211912 0.503391 0.0488637)
(-0.0197209 0.497765 0.0473561)
(-0.0579495 0.54121 0.0384099)
(-0.0490746 0.518844 0.0429175)
(-0.0417499 0.50227 0.0450422)
(-0.0364629 0.491178 0.0444547)
(-0.0333841 0.485981 0.0418618)
(-0.0776765 0.52673 0.0395271)
(-0.0673568 0.504442 0.0418277)
(-0.0586272 0.488143 0.0419523)
(-0.0519148 0.477706 0.0399162)
(-0.0471145 0.472963 0.0365041)
(-0.097871 0.509451 0.0398658)
(-0.0859196 0.487885 0.0400526)
(-0.0756861 0.472489 0.0384267)
(-0.0674533 0.463066 0.0352345)
(-0.0607816 0.458603 0.031257)
(-0.118322 0.489518 0.0392218)
(-0.104605 0.469391 0.037484)
(-0.0927866 0.45548 0.0344052)
(-0.0829212 0.447269 0.0303669)
(-0.074198 0.44269 0.026089)
(-0.138771 0.467173 0.0373769)
(-0.123207 0.449199 0.0340028)
(-0.109724 0.437223 0.0298289)
(-0.0980819 0.430187 0.0253034)
(-0.0870885 0.424878 0.0210635)
(-0.158924 0.442721 0.0341445)
(-0.141462 0.427495 0.0295397)
(-0.126208 0.417671 0.0247305)
(-0.11258 0.411499 0.0201877)
(-0.0990631 0.404666 0.0162801)
(-0.178424 0.416425 0.0294652)
(-0.159004 0.404302 0.02423)
(-0.141779 0.396529 0.0193743)
(-0.12587 0.390627 0.0151847)
(-0.10961 0.381477 0.0116587)
(-0.196781 0.388375 0.0236406)
(-0.175243 0.379304 0.0184194)
(-0.155759 0.373168 0.0139278)
(-0.137249 0.366926 0.0101554)
(-0.117954 0.354813 0.00688642)
(-0.213312 0.358233 0.0169154)
(-0.18938 0.351962 0.0120779)
(-0.167193 0.346969 0.0080496)
(-0.145637 0.339454 0.00468424)
(-0.123028 0.323353 0.00166056)
(-0.226887 0.325471 0.00872536)
(-0.200101 0.321099 0.00446893)
(-0.174724 0.316126 0.00107354)
(-0.149719 0.306875 -0.00166198)
(-0.123746 0.287296 -0.0041107)
(-0.235991 0.287233 -0.00176795)
(-0.205866 0.284542 -0.00498607)
(-0.17684 0.279905 -0.00729738)
(-0.148165 0.269461 -0.00899965)
(-0.118983 0.247412 -0.0104549)
(-0.239174 0.242581 -0.0145557)
(-0.205154 0.241493 -0.0163232)
(-0.171922 0.237437 -0.0172223)
(-0.139272 0.226805 -0.0175103)
(-0.107033 0.204143 -0.0174585)
(-0.234594 0.190125 -0.0299639)
(-0.195953 0.190432 -0.03014)
(-0.157852 0.187538 -0.0294372)
(-0.120809 0.178369 -0.0279492)
(-0.0855128 0.157913 -0.0257763)
(-0.220367 0.123729 -0.049136)
(-0.176902 0.125366 -0.048008)
(-0.133465 0.124638 -0.0458652)
(-0.0913593 0.119512 -0.042577)
(-0.0519209 0.105169 -0.0380114)
(-0.17877 0.0522484 -0.0749579)
(-0.134407 0.0552996 -0.0736215)
(-0.0880407 0.0573245 -0.0706875)
(-0.0422994 0.0575618 -0.065782)
(0.00451517 0.0510562 -0.0576875)
(0.281363 0.0186486 0.202358)
(0.280931 0.0274841 0.188263)
(0.262478 0.0360295 0.173585)
(0.225817 0.0397383 0.154297)
(0.178275 0.0390995 0.131894)
(0.349898 0.0467438 0.123837)
(0.363223 0.0684739 0.129795)
(0.355716 0.0933681 0.141089)
(0.325366 0.108694 0.145087)
(0.282466 0.114984 0.141646)
(0.32548 0.0102852 -0.0953774)
(0.355127 0.0646966 -0.0550327)
(0.356675 0.135664 0.00222107)
(0.32574 0.174577 0.0456796)
(0.284292 0.1914 0.0772167)
(0.280488 0.0398898 -0.430169)
(0.323225 0.137809 -0.222695)
(0.289215 0.203889 -0.0913331)
(0.247893 0.24304 -0.00586552)
(0.259469 0.0704782 -0.499256)
(0.309543 0.137995 -0.303012)
(0.268136 0.210078 -0.157136)
(0.221575 0.266182 -0.0525481)
(0.270596 0.0802807 -0.506378)
(0.315798 0.14551 -0.326242)
(0.261041 0.224233 -0.181722)
(0.205111 0.290754 -0.0722802)
(0.270138 0.130469 -0.491589)
(0.310918 0.183825 -0.317015)
(0.247275 0.256521 -0.180182)
(0.187486 0.323647 -0.0737447)
(0.265848 0.165684 -0.485341)
(0.30292 0.220004 -0.307411)
(0.229709 0.294022 -0.172895)
(0.167344 0.360449 -0.0681917)
(0.253811 0.222947 -0.490828)
(0.287156 0.272699 -0.302758)
(0.202772 0.342527 -0.164208)
(0.139656 0.401067 -0.0599578)
(0.22988 0.272494 -0.494134)
(0.254308 0.325717 -0.291419)
(0.160613 0.392129 -0.149679)
(0.101992 0.440569 -0.0472078)
(0.190074 0.361497 -0.492382)
(0.198601 0.388705 -0.262011)
(0.103458 0.437831 -0.125215)
(0.0575592 0.474422 -0.0297079)
(0.00346952 0.500767 0.0384176)
(0.115538 0.430445 -0.31726)
(0.107664 0.4245 -0.179731)
(0.0384839 0.465315 -0.0847375)
(0.0104915 0.497668 -0.00717328)
(-0.0220494 0.51961 0.0533065)
(0.0548135 0.424251 -0.198937)
(0.0388707 0.428803 -0.116135)
(-0.0113297 0.47762 -0.0487809)
(-0.0268041 0.51084 0.0135278)
(-0.0396105 0.529883 0.0656201)
(0.00662223 0.417768 -0.120033)
(-0.0126715 0.434057 -0.0689903)
(-0.0466192 0.485348 -0.0211609)
(-0.0510372 0.518136 0.0297076)
(-0.0506553 0.53549 0.0750884)
(-0.0281511 0.414565 -0.0704566)
(-0.0477705 0.440152 -0.0382223)
(-0.0706641 0.490528 -0.000795291)
(-0.0653761 0.522534 0.0424442)
(-0.0570907 0.539031 0.0817988)
(-0.0525749 0.417756 -0.0401612)
(-0.0706008 0.448066 -0.0176507)
(-0.0836942 0.4957 0.0143489)
(-0.0730817 0.525619 0.0518527)
(-0.0603458 0.541742 0.085836)
(-0.0699128 0.426045 -0.0215318)
(-0.0852813 0.457447 -0.0030793)
(-0.090101 0.501123 0.0259217)
(-0.0767709 0.528491 0.0584465)
(-0.0617557 0.544135 0.0874984)
(-0.0825808 0.437478 -0.00908981)
(-0.0937201 0.468414 0.00818264)
(-0.0930084 0.506718 0.0345224)
(-0.0783051 0.531368 0.0626333)
(-0.0623523 0.546244 0.0871364)
(-0.0921114 0.450712 0.000350292)
(-0.0988822 0.479494 0.0171244)
(-0.0943327 0.51226 0.0407258)
(-0.0790056 0.534064 0.0648102)
(-0.0628293 0.547889 0.0851348)
(-0.0997551 0.464601 0.00802754)
(-0.102648 0.489871 0.0241059)
(-0.0953061 0.517342 0.044993)
(-0.0797209 0.536267 0.0653474)
(-0.0636165 0.548824 0.0818773)
(-0.106643 0.477661 0.0143852)
(-0.106112 0.498968 0.0294888)
(-0.0966638 0.521545 0.0477036)
(-0.0809346 0.537659 0.0645898)
(-0.0649586 0.548807 0.0777138)
(-0.113509 0.48911 0.0197485)
(-0.109942 0.506371 0.0336124)
(-0.0987938 0.524523 0.0491752)
(-0.0828919 0.537967 0.0628437)
(-0.0669828 0.547634 0.0729376)
(-0.120798 0.498423 0.024323)
(-0.114486 0.511795 0.0367258)
(-0.101859 0.526012 0.0496602)
(-0.085696 0.53698 0.0603591)
(-0.069743 0.545147 0.0677848)
(-0.128721 0.505272 0.0282723)
(-0.119883 0.51505 0.0389775)
(-0.105893 0.525826 0.0493399)
(-0.089368 0.534552 0.0573241)
(-0.0732454 0.541237 0.0624284)
(-0.137329 0.509465 0.0317083)
(-0.126135 0.516028 0.0404829)
(-0.110864 0.523849 0.0483416)
(-0.0938863 0.530589 0.0538657)
(-0.0774729 0.535821 0.056972)
(-0.146609 0.510904 0.0346175)
(-0.133192 0.514667 0.0413035)
(-0.116695 0.520012 0.0467494)
(-0.0992015 0.525033 0.0500653)
(-0.0823916 0.528816 0.0514763)
(-0.156499 0.509534 0.0369175)
(-0.140973 0.510963 0.0414232)
(-0.123306 0.514297 0.0445963)
(-0.105252 0.517842 0.0459814)
(-0.0879344 0.520126 0.045999)
(-0.166913 0.505336 0.0384636)
(-0.149391 0.504939 0.0407883)
(-0.13061 0.506715 0.0418936)
(-0.111949 0.508989 0.0416522)
(-0.0939946 0.509645 0.0405723)
(-0.177741 0.498324 0.0390797)
(-0.158344 0.496648 0.0393233)
(-0.138497 0.497288 0.0386295)
(-0.119169 0.498424 0.0370901)
(-0.100424 0.497232 0.0352035)
(-0.188849 0.488541 0.038577)
(-0.167703 0.486143 0.036947)
(-0.146825 0.48601 0.0347862)
(-0.126742 0.486041 0.0323002)
(-0.107024 0.482685 0.0298971)
(-0.200066 0.476054 0.0367729)
(-0.177302 0.473453 0.0335949)
(-0.155397 0.472805 0.0303643)
(-0.134426 0.471643 0.027308)
(-0.113517 0.465745 0.0246858)
(-0.21119 0.460912 0.0335497)
(-0.186916 0.458523 0.0292655)
(-0.163931 0.457479 0.025424)
(-0.141874 0.454938 0.0221978)
(-0.11952 0.446122 0.0196499)
(-0.221933 0.443086 0.0289048)
(-0.196212 0.441171 0.024074)
(-0.171998 0.439722 0.0201284)
(-0.148578 0.435567 0.0171224)
(-0.124534 0.423518 0.0149275)
(-0.2319 0.422436 0.0230631)
(-0.204675 0.421081 0.0182934)
(-0.178981 0.419122 0.014734)
(-0.15389 0.413126 0.0123157)
(-0.127957 0.397632 0.0107375)
(-0.240526 0.398621 0.016447)
(-0.211605 0.397757 0.012341)
(-0.184095 0.395114 0.00960437)
(-0.15702 0.387074 0.00801892)
(-0.129073 0.368058 0.00714138)
(-0.247047 0.370845 0.00972096)
(-0.216137 0.370287 0.00666066)
(-0.186434 0.366796 0.00491663)
(-0.157081 0.356675 0.00416079)
(-0.127048 0.334324 0.00388008)
(-0.250474 0.337638 0.00343225)
(-0.217133 0.337042 0.00144607)
(-0.184796 0.332597 0.000578653)
(-0.152881 0.320662 0.00048688)
(-0.120771 0.295694 0.000639691)
(-0.249475 0.295557 -0.00223282)
(-0.213186 0.295048 -0.00330135)
(-0.177681 0.290257 -0.00346661)
(-0.142815 0.277655 -0.0030954)
(-0.10857 0.251822 -0.00270082)
(-0.242397 0.241587 -0.0067092)
(-0.202445 0.241516 -0.0070515)
(-0.162978 0.237298 -0.0068052)
(-0.124499 0.225812 -0.00626)
(-0.0878196 0.201908 -0.00588655)
(-0.227266 0.166208 -0.0095144)
(-0.183095 0.167305 -0.00933404)
(-0.138839 0.165399 -0.00883236)
(-0.0957267 0.15828 -0.0082813)
(-0.0551525 0.140975 -0.00825104)
(-0.186614 0.0791766 -0.0057385)
(-0.141024 0.0822711 -0.00558506)
(-0.0934113 0.0839347 -0.00530521)
(-0.0462209 0.0831593 -0.00512028)
(0.00155285 0.0748192 -0.00584045)
(0.256602 0.0405339 0.13197)
(0.255003 0.0456362 0.121418)
(0.234136 0.0530543 0.113467)
(0.193152 0.0540453 0.101598)
(0.143703 0.0504584 0.0879796)
(0.318738 0.116916 0.0761258)
(0.329908 0.128515 0.0787521)
(0.314927 0.151227 0.089998)
(0.271974 0.158645 0.0936636)
(0.219973 0.155547 0.0933719)
(0.30511 0.103197 -0.0614406)
(0.333902 0.145652 -0.0458917)
(0.3291 0.2216 5.31201e-06)
(0.277052 0.253691 0.0270838)
(0.21964 0.258907 0.0486293)
(0.145995 0.0282321 -0.537086)
(0.237732 0.0782372 -0.485244)
(0.288434 0.219518 -0.185689)
(0.224364 0.294337 -0.0651986)
(0.172565 0.327561 -0.000582772)
(0.209871 0.0985593 -0.574175)
(0.257955 0.199194 -0.259954)
(0.174678 0.297213 -0.112115)
(0.121863 0.360161 -0.0222237)
(0.218276 0.0699671 -0.590805)
(0.250429 0.173816 -0.287528)
(0.13799 0.293683 -0.132751)
(0.075854 0.382586 -0.0270551)
(0.214562 0.10262 -0.586101)
(0.230264 0.189985 -0.283615)
(0.0959505 0.306532 -0.133666)
(0.0277873 0.409806 -0.0208575)
(0.207543 0.118881 -0.586865)
(0.209014 0.210579 -0.276994)
(0.0526592 0.329512 -0.127756)
(-0.0250327 0.445856 -0.00711582)
(0.192782 0.167667 -0.599808)
(0.181174 0.253976 -0.273054)
(-0.00177204 0.372497 -0.113014)
(-0.0781796 0.482251 0.00373331)
(0.163918 0.201088 -0.609021)
(0.130077 0.300449 -0.258662)
(-0.0754724 0.428746 -0.084105)
(-0.128799 0.511613 0.0102391)
(0.1073 0.295489 -0.608553)
(0.0338853 0.369532 -0.206873)
(-0.147814 0.478095 -0.0553689)
(-0.176609 0.530404 0.0145442)
(-0.0296163 0.368436 -0.27925)
(-0.11058 0.410164 -0.10428)
(-0.212676 0.502595 -0.0248092)
(-0.219672 0.536069 0.019537)
(-0.210884 0.528743 0.0415858)
(-0.124361 0.340752 -0.132177)
(-0.197698 0.419767 -0.0528898)
(-0.253212 0.505335 -0.00726493)
(-0.246097 0.532444 0.0223216)
(-0.223492 0.528826 0.0447408)
(-0.197694 0.349978 -0.0576881)
(-0.252303 0.432127 -0.0242884)
(-0.277749 0.503549 0.00264576)
(-0.259614 0.526818 0.0247609)
(-0.228557 0.527179 0.0476525)
(-0.243476 0.364356 -0.0240053)
(-0.281213 0.441264 -0.00957918)
(-0.288884 0.499816 0.00810237)
(-0.263556 0.521035 0.02713)
(-0.227784 0.525372 0.0500872)
(-0.269998 0.382202 -0.00917878)
(-0.293608 0.448438 -0.00205821)
(-0.289521 0.496226 0.0114973)
(-0.26087 0.516317 0.0295081)
(-0.222724 0.524105 0.0517943)
(-0.283504 0.399139 -0.00268018)
(-0.296339 0.454099 0.0020479)
(-0.284301 0.493673 0.0142141)
(-0.254087 0.513266 0.0317045)
(-0.215012 0.523552 0.0526291)
(-0.288308 0.413298 0.000249337)
(-0.292377 0.458631 0.00469482)
(-0.275956 0.492213 0.0166709)
(-0.244983 0.51163 0.0334592)
(-0.205935 0.523477 0.0525408)
(-0.287735 0.424651 0.00175775)
(-0.285261 0.462584 0.00691576)
(-0.266216 0.491826 0.0188711)
(-0.234928 0.510915 0.0346138)
(-0.19643 0.523493 0.0515751)
(-0.283901 0.43397 0.00296694)
(-0.27702 0.466302 0.00907212)
(-0.25616 0.492085 0.0207437)
(-0.224848 0.510558 0.0351254)
(-0.187136 0.523171 0.049847)
(-0.279008 0.441753 0.00439861)
(-0.268765 0.46955 0.0112188)
(-0.246519 0.492478 0.022251)
(-0.215327 0.510028 0.0350307)
(-0.178466 0.522098 0.0475061)
(-0.274217 0.448188 0.00619186)
(-0.261123 0.471976 0.0132879)
(-0.237753 0.492512 0.023381)
(-0.206706 0.508863 0.0344037)
(-0.170668 0.519919 0.0447062)
(-0.270034 0.452932 0.00830901)
(-0.254454 0.473387 0.0152304)
(-0.230101 0.491762 0.0241378)
(-0.199165 0.506674 0.033329)
(-0.163876 0.516338 0.0415875)
(-0.266751 0.45587 0.0106178)
(-0.248932 0.473545 0.0169912)
(-0.223654 0.489876 0.0245248)
(-0.192777 0.503156 0.0318832)
(-0.158143 0.511121 0.0382636)
(-0.264509 0.456985 0.0129966)
(-0.244596 0.472229 0.0184985)
(-0.218414 0.486574 0.024533)
(-0.187547 0.498067 0.03012)
(-0.153468 0.50408 0.0348138)
(-0.263319 0.456196 0.0153114)
(-0.2414 0.469244 0.0196804)
(-0.214332 0.481632 0.0241517)
(-0.183434 0.491212 0.028078)
(-0.149813 0.495048 0.0312968)
(-0.263104 0.453394 0.017397)
(-0.239257 0.46442 0.0204438)
(-0.21133 0.474869 0.0233603)
(-0.180366 0.482426 0.0257884)
(-0.147104 0.483877 0.027765)
(-0.263742 0.448439 0.0190589)
(-0.23805 0.457595 0.0206858)
(-0.209301 0.466127 0.0221364)
(-0.178238 0.471564 0.0232791)
(-0.145233 0.470429 0.0242636)
(-0.265066 0.441164 0.0200884)
(-0.237633 0.448602 0.020305)
(-0.208106 0.455248 0.0204615)
(-0.176908 0.458477 0.0205792)
(-0.144052 0.454564 0.0208384)
(-0.266876 0.431366 0.0202896)
(-0.237826 0.437253 0.0192222)