/*--------------------------------*- C++ -*----------------------------------*\
| =========                 |                                                 |
| \\      /  F ield         | OpenFOAM: The Open Source CFD Toolbox           |
|  \\    /   O peration     | Version:  2.3.1                                 |
|   \\  /    A nd           | Web:      www.OpenFOAM.org                      |
|    \\/     M anipulation  |                                                 |
\*---------------------------------------------------------------------------*/
FoamFile
{
    version     2.0;
    format      ascii;
    class       volScalarField;
    location    "600";
    object      alphat;
}
// * * * * * * * * * * * * * * * * * * * * * * * * * * * * * * * * * * * * * //

dimensions      [0 2 -1 0 0 0 0];

internalField   nonuniform List<scalar> 
6852
(
0.00451797
0.00341425
0.00442881
0.00543781
0.00618999
0.00342618
0.00208088
0.00261113
0.00298943
0.00320122
0.00406501
0.00243351
0.00291231
0.00318706
0.00327685
0.00452129
0.00261652
0.00303318
0.00320584
0.00316643
0.00496006
0.00276062
0.00309275
0.00316082
0.00300812
0.00545795
0.00296405
0.0032703
0.00332175
0.00315995
0.00598486
0.00319116
0.00348869
0.00354148
0.00338783
0.00651496
0.0034251
0.00372322
0.00378709
0.00364888
0.00702809
0.00365662
0.00396309
0.0040469
0.00393235
0.00750259
0.00387566
0.00419653
0.00430785
0.00422562
0.00791647
0.00407213
0.00441186
0.0045565
0.0045134
0.00824824
0.00423515
0.00459625
0.00477996
0.004791
0.008481
0.00435541
0.00473736
0.00496118
0.00503527
0.00860601
0.00442696
0.00482623
0.00508465
0.00521964
0.00862373
0.00444797
0.00485914
0.0051418
0.00532806
0.00854288
0.00442062
0.00483796
0.00513211
0.00535496
0.00837802
0.00435021
0.00476895
0.00506213
0.00530532
0.00814674
0.00424381
0.00466103
0.00494305
0.00519163
0.00786719
0.00410896
0.00452384
0.00478792
0.00503005
0.00755976
0.003951
0.00436616
0.00460931
0.00483689
0.00723523
0.00377597
0.00419484
0.00441771
0.00462634
0.00689934
0.0035959
0.00400932
0.00422049
0.00440918
0.006558
0.00341211
0.00381712
0.00401974
0.00419246
0.00620507
0.00322506
0.00362071
0.0038198
0.00397732
0.00583407
0.00303401
0.00341946
0.00362127
0.0037701
0.00544005
0.00283702
0.0032119
0.00342128
0.00356878
0.00501853
0.00263147
0.00299601
0.00321632
0.00336954
0.00456545
0.0024146
0.00276935
0.00300262
0.0031677
0.00407906
0.00218757
0.00253039
0.00277679
0.00295834
0.00356501
0.00195529
0.00228051
0.00253741
0.00273762
0.00306028
0.00172855
0.00202645
0.00228733
0.00250462
0.00271658
0.0015368
0.00179503
0.00204159
0.00226619
0.00254673
0.00140845
0.00162361
0.00183047
0.00204256
0.00247537
0.00133484
0.00152268
0.0016946
0.00187156
0.00249044
0.00130434
0.00146325
0.00162135
0.00177124
0.00251235
0.00127703
0.00140823
0.00155421
0.00169798
0.00249439
0.00123609
0.00134736
0.00148108
0.00162495
0.0024273
0.00118225
0.00128735
0.00140672
0.00154789
0.00232738
0.00113818
0.00124825
0.00135411
0.00148763
0.00223937
0.00113485
0.00124812
0.00134665
0.00146269
0.00339179
0.00246543
0.00272422
0.00288599
0.00306576
0.00286373
0.001537
0.00205329
0.00253461
0.00287619
0.00160623
0.00218301
0.00234238
0.0023916
0.00233305
0.00179344
0.00215401
0.00214805
0.0020517
0.00193822
0.00192869
0.00212412
0.00202235
0.00192283
0.00200424
0.00208356
0.0021088
0.00196107
0.00193948
0.00209959
0.00227089
0.00213512
0.0019895
0.00207593
0.00231332
0.00248077
0.00219329
0.00205336
0.00220385
0.00257347
0.00270221
0.00227105
0.00212636
0.0022965
0.00279625
0.00292692
0.0023604
0.00220121
0.00235705
0.00295023
0.00314697
0.00245603
0.00227578
0.00238983
0.00299579
0.00335419
0.00255435
0.00235057
0.00240199
0.00288375
0.00354015
0.00265229
0.00242726
0.00241377
0.00272903
0.00369691
0.00274667
0.00250622
0.00244127
0.0026038
0.00381868
0.00283422
0.00258502
0.00248873
0.00253712
0.00390262
0.00291201
0.00265893
0.00254989
0.00252801
0.00394882
0.00297818
0.00272322
0.00261467
0.00255661
0.00395973
0.00303235
0.00277471
0.00267425
0.00260235
0.0039392
0.00307553
0.00281241
0.00272308
0.00265026
0.00389162
0.00310982
0.00283727
0.00275903
0.00269187
0.00382139
0.0031381
0.0028516
0.00278259
0.00272386
0.00373182
0.00316361
0.00285847
0.00279584
0.00274627
0.00362504
0.00318948
0.00286144
0.00280159
0.0027609
0.00349955
0.00321898
0.00286406
0.0028029
0.00277026
0.00335411
0.00325094
0.00286988
0.00280274
0.00277696
0.00319144
0.00328321
0.00288257
0.00280393
0.00278333
0.00301522
0.00331368
0.0029078
0.00280931
0.00279152
0.00282675
0.0033373
0.00295296
0.00282256
0.00280348
0.00262688
0.0033554
0.00301678
0.00285026
0.00282153
0.00241565
0.00336396
0.00309915
0.00289822
0.00284978
0.0021901
0.00335943
0.00319812
0.00297257
0.00289412
0.00194811
0.00333938
0.00331165
0.00307933
0.00296296
0.00168946
0.00329952
0.00342446
0.00322123
0.00306678
0.00142274
0.00322766
0.00352126
0.00339761
0.00321803
0.00120995
0.00313775
0.00359168
0.00357596
0.00342067
0.00116909
0.00305856
0.00363166
0.00373432
0.00365052
0.00118205
0.00300183
0.00364293
0.00385178
0.00385813
0.00118079
0.00291597
0.00361735
0.00389963
0.00399432
0.00114696
0.00272025
0.00352779
0.00387187
0.00402925
0.00110226
0.00237287
0.00335599
0.00376598
0.00397245
0.00107775
0.00176562
0.00266548
0.00338715
0.00362628
0.00230333
0.00123547
0.00138065
0.00148175
0.0015983
0.00285985
0.00153508
0.00205866
0.0025314
0.00287381
0.0015854
0.00213796
0.00222291
0.00222224
0.00213967
0.00172474
0.00211
0.00205511
0.00197278
0.00194226
0.00185228
0.00206275
0.00197167
0.00194706
0.00199981
0.00200907
0.00202925
0.00194799
0.00197032
0.00193496
0.00219551
0.00201328
0.00196147
0.00202639
0.00194874
0.00240344
0.00201274
0.00198548
0.00211797
0.00207403
0.00262421
0.0020273
0.00200842
0.00222919
0.00226125
0.00285124
0.00205538
0.00202317
0.00232659
0.0024557
0.00307838
0.00209456
0.00202572
0.00237839
0.00261489
0.00329866
0.00214283
0.00201695
0.00236514
0.00271038
0.00350404
0.00219912
0.00200455
0.00229581
0.00273756
0.00368615
0.00226237
0.00199855
0.00220075
0.00266549
0.00383813
0.00233059
0.00200494
0.00211432
0.00252998
0.00395564
0.00240095
0.00202431
0.00205518
0.00238213
0.00403701
0.00247048
0.00205366
0.00202547
0.00225923
0.00408294
0.00253674
0.00208892
0.00201938
0.00217592
0.00409575
0.00259824
0.00212652
0.0020292
0.00212878
0.00407867
0.00265452
0.00216401
0.0020482
0.00210798
0.00403517
0.00270615
0.00220014
0.0020716
0.00210419
0.00396848
0.00275444
0.00223469
0.00209653
0.00211054
0.00388091
0.00280127
0.00226829
0.00212153
0.00212262
0.0037718
0.00284297
0.00230208
0.00214627
0.00213791
0.00364473
0.00288191
0.00233752
0.00217106
0.0021553
0.0035026
0.00292023
0.00237668
0.00219669
0.00217449
0.00334697
0.0029536
0.00242609
0.00222458
0.00219584
0.00317817
0.00298365
0.00248485
0.00225903
0.00222031
0.00299469
0.00301188
0.00255245
0.00230342
0.00225115
0.00279404
0.0030392
0.00262961
0.00236113
0.0022908
0.00257527
0.00306575
0.00271715
0.00243575
0.00234257
0.00233731
0.00309081
0.00281604
0.00253067
0.00241103
0.00207864
0.0031126
0.00292639
0.00264857
0.00250176
0.00179744
0.00312727
0.00304685
0.00279082
0.00262042
0.00149408
0.00312997
0.0031748
0.00295622
0.00277172
0.00118384
0.00312025
0.00330879
0.00314252
0.00295754
0.00111228
0.00315061
0.00345501
0.00334959
0.00317695
0.0011521
0.00320488
0.00360496
0.003572
0.00342841
0.00115601
0.00320989
0.00371735
0.00377836
0.00369879
0.00112981
0.00306465
0.00373679
0.00392885
0.00395501
0.00111282
0.00228177
0.00339857
0.00380495
0.00394855
0.00240174
0.00130199
0.00145672
0.00156658
0.00167578
0.00277331
0.00148695
0.00200027
0.00246658
0.00281992
0.00154672
0.00205228
0.00215949
0.0022001
0.00215297
0.00169082
0.00213309
0.00213066
0.00208681
0.00203893
0.00184358
0.00213461
0.00211136
0.00207376
0.00204631
0.00203135
0.00211209
0.00210561
0.00207284
0.00199121
0.00225054
0.00208122
0.00210972
0.00207724
0.00193405
0.00249073
0.00204929
0.00211434
0.00209214
0.00191362
0.00273643
0.00201524
0.00211275
0.0021211
0.00192979
0.00297957
0.00199149
0.00210015
0.00216186
0.00196515
0.0032157
0.00198945
0.00207252
0.00220953
0.00200627
0.00343839
0.00200847
0.00202888
0.00225335
0.0020485
0.00364025
0.00204516
0.00198453
0.0022692
0.00210736
0.00381421
0.00209554
0.00195017
0.00223913
0.00219265
0.00395494
0.00215483
0.00193158
0.0021792
0.00226338
0.00405938
0.00221822
0.00192963
0.00211241
0.00229592
0.00412688
0.00228165
0.00194193
0.00205536
0.00228802
0.00415877
0.00234231
0.00196486
0.0020152
0.00225453
0.00415782
0.00239859
0.00199482
0.00199236
0.00221301
0.00412756
0.00244997
0.00202894
0.00198416
0.00217498
0.00407175
0.00249677
0.00206522
0.0019872
0.00214539
0.00399392
0.00253982
0.00210251
0.00199843
0.0021251
0.003897
0.00258037
0.00214039
0.00201561
0.00211323
0.00378314
0.00261953
0.00217895
0.00203728
0.00210842
0.00365421
0.00265839
0.00221873
0.0020627
0.00210954
0.00351144
0.0026979
0.0022607
0.0020917
0.00211587
0.00335525
0.00273817
0.00230659
0.00212472
0.00212719
0.00318532
0.00277943
0.00235799
0.00216296
0.00214391
0.00300067
0.00282188
0.00241661
0.00220816
0.00216727
0.0027999
0.00286553
0.00248431
0.00226247
0.0021991
0.00258161
0.00290991
0.00256302
0.00232855
0.00224192
0.00234473
0.0029536
0.00265425
0.00240934
0.00229888
0.00208816
0.00299385
0.00275851
0.00250772
0.00237369
0.00181048
0.00302589
0.00287424
0.00262563
0.00246956
0.00151394
0.00304332
0.00299742
0.00276329
0.00258919
0.00120586
0.003044
0.00312339
0.00291926
0.00273453
0.00107713
0.00309145
0.00326116
0.0030942
0.00290748
0.00113807
0.00319172
0.00341983
0.00329037
0.00311161
0.00115761
0.00327034
0.00358114
0.00350499
0.00335383
0.0011428
0.00312975
0.00368036
0.00372701
0.00365861
0.00112664
0.00255099
0.00345615
0.00374917
0.00381747
0.00242748
0.00132456
0.0014787
0.0015766
0.00166421
0.00254385
0.00131901
0.00179093
0.00224585
0.00261778
0.00143501
0.00192989
0.0021138
0.002276
0.00233821
0.0016186
0.00211559
0.00221325
0.00228688
0.00230072
0.00181881
0.0021792
0.00224482
0.00228463
0.00226708
0.00204288
0.00214387
0.00224347
0.00226954
0.00221057
0.00228159
0.00205937
0.00221356
0.00224928
0.00217149
0.00252939
0.00198793
0.00215534
0.00221261
0.00215588
0.00277787
0.00195794
0.00208184
0.00215931
0.00215313
0.0030194
0.00197144
0.00201462
0.0020973
0.00212263
0.0032474
0.00201941
0.0019691
0.00203837
0.00207232
0.00345513
0.00209059
0.00195018
0.00199272
0.00201676
0.00363577
0.00217531
0.00195613
0.00196694
0.00197253
0.00378349
0.0022655
0.00198158
0.00196058
0.00194679
0.00389466
0.00235491
0.00202047
0.00196993
0.0019402
0.003968
0.00243928
0.00206734
0.00199007
0.00194889
0.00400443
0.00251615
0.00211798
0.00201668
0.00196736
0.00400654
0.00258465
0.0021695
0.00204659
0.00199084
0.003978
0.00264503
0.00222014
0.00207772
0.00201603
0.00392293
0.0026983
0.00226903
0.00210889
0.00204104
0.00384541
0.00274583
0.00231593
0.00213951
0.00206502
0.00374908
0.00278906
0.00236109
0.00216949
0.00208779
0.00363682
0.00282938
0.00240513
0.00219913
0.00210958
0.00351068
0.00286794
0.00244896
0.00222908
0.00213094
0.00337187
0.00290558
0.00249377
0.00226033
0.00215266
0.00322085
0.00294279
0.00254093
0.00229418
0.00217577
0.00305735
0.00297961
0.00259204
0.00233231
0.00220161
0.00288042
0.00301568
0.00264876
0.00237675
0.00223195
0.00268852
0.00305015
0.00271266
0.00242988
0.00226905
0.00247965
0.0030816
0.00278499
0.00249433
0.00231576
0.00225147
0.00310766
0.00286631
0.00257289
0.00237574
0.00200192
0.00312437
0.00295586
0.00266792
0.0024531
0.00173043
0.00312599
0.00305058
0.00278059
0.00255227
0.001445
0.00310413
0.00314399
0.00290905
0.00267582
0.00115491
0.00306114
0.0032287
0.00304793
0.00282311
0.0011046
0.0030446
0.00330748
0.00319149
0.00299102
0.00114917
0.00307851
0.00339253
0.00333744
0.00317495
0.00118084
0.00313783
0.00348742
0.00348266
0.00336802
0.00117517
0.00311857
0.0035622
0.00361305
0.00355659
0.00113869
0.00267108
0.0035315
0.00370022
0.00372266
0.00111475
0.00207728
0.00309264
0.00353382
0.00366978
0.00238778
0.00129518
0.0014354
0.00152904
0.00161189
0.00357758
0.00249782
0.00317814
0.00406579
0.00487319
0.00270888
0.00134367
0.00162461
0.00199664
0.00233526
0.00320906
0.00152147
0.00174557
0.00210727
0.00249254
0.00373829
0.00171456
0.00190214
0.00224386
0.00265924
0.00428921
0.00192589
0.00208072
0.0024094
0.00282864
0.00484244
0.00215088
0.00227584
0.00259023
0.00299135
0.00538358
0.00238045
0.00248227
0.0027826
0.0031539
0.00590001
0.00260569
0.00269268
0.00298252
0.00332199
0.00638037
0.00281938
0.00289926
0.00318431
0.00350323
0.00681363
0.00301566
0.00309409
0.00337974
0.00369279
0.00718846
0.00318937
0.00326956
0.00355829
0.00387799
0.00749396
0.00333573
0.0034184
0.0037067
0.0040337
0.00772257
0.00345138
0.00353589
0.00381708
0.00414005
0.0078726
0.00353631
0.00362277
0.00389184
0.00420109
0.00794711
0.00359286
0.00368282
0.003937
0.00422516
0.00795248
0.00362454
0.003721
0.00395973
0.0042227
0.0078971
0.00363519
0.00374225
0.00396696
0.00420414
0.00779001
0.00362836
0.00375062
0.00396403
0.00417728
0.00763984
0.00360686
0.00374885
0.00395429
0.00414686
0.00745402
0.00357265
0.0037384
0.00393934
0.0041151
0.00723837
0.00352677
0.00371954
0.00391932
0.00408239
0.00699668
0.00346941
0.0036916
0.00389335
0.00404788
0.0067307
0.00339999
0.00365316
0.0038598
0.00401
0.00644031
0.00331733
0.00360222
0.00381658
0.00396676
0.00612369
0.00321972
0.0035364
0.00376129
0.00391586
0.00577749
0.00310511
0.00345313
0.00369141
0.0038549
0.0053969
0.00297122
0.0033498
0.00360438
0.00378144
0.00497578
0.00281575
0.00322385
0.00349767
0.00369286
0.00450672
0.00263658
0.003073
0.00336877
0.00358638
0.00398152
0.00243208
0.00289543
0.00321521
0.00345865
0.00339956
0.00220229
0.00269047
0.00303501
0.00330611
0.00281622
0.00195282
0.00246002
0.00282737
0.00312533
0.00251111
0.00170451
0.00221129
0.00259393
0.00291309
0.0023574
0.00147123
0.00195575
0.00234123
0.00267186
0.00234509
0.0012593
0.00170776
0.00207996
0.00240811
0.00239262
0.00116108
0.00149617
0.0018259
0.0021314
0.00242377
0.00116609
0.00131468
0.00158838
0.00185293
0.00240609
0.00115534
0.00116577
0.00137865
0.00158947
0.00235604
0.00115082
0.00120905
0.00124241
0.00140537
0.00232189
0.00119317
0.00129438
0.00134813
0.00140365
0.00356324
0.0026228
0.00287098
0.00297241
0.00303755
0.00142831
0.00103184
0.00115591
0.00127148
0.00102366
0.000558995
0.000646759
0.000733913
0.00113981
0.000633031
0.000740382
0.000822759
0.00125021
0.000698016
0.00080685
0.000869711
0.000894206
0.00136836
0.000754645
0.000856954
0.000905894
0.000902321
0.00150745
0.000812832
0.000907861
0.000947951
0.000931885
0.00166735
0.000877114
0.000964654
0.000999123
0.000978715
0.00184437
0.000947278
0.00102616
0.00105582
0.00103444
0.00203544
0.00102345
0.00109242
0.00111781
0.00109835
0.00223514
0.00110467
0.00116232
0.00118356
0.00116864
0.00243714
0.00119029
0.00123573
0.00125291
0.0012464
0.00263149
0.00127736
0.00130958
0.00132044
0.00132048
0.00280783
0.00136165
0.00138231
0.00138328
0.00138108
0.0029581
0.0014387
0.00145345
0.00144291
0.00143302
0.00307726
0.0015059
0.00152153
0.00149977
0.00147928
0.00316332
0.00156103
0.00158402
0.00155255
0.0015206
0.00321712
0.00160259
0.0016377
0.00159874
0.00155641
0.00324195
0.00163
0.00167844
0.00163598
0.0015851
0.00324313
0.00164389
0.00170351
0.00166252
0.00160528
0.00322741
0.00164647
0.00171528
0.00167803
0.00161667
0.00320203
0.00164089
0.00171676
0.00168373
0.00162011
0.0031736
0.00163053
0.00171126
0.001682
0.00161685
0.00314729
0.0016185
0.00170215
0.00167594
0.0016102
0.00312656
0.00160725
0.00169236
0.00166864
0.00160327
0.00311318
0.00159849
0.00168421
0.00166276
0.0015985
0.00310738
0.00159313
0.00167927
0.00166024
0.00159782
0.00310805
0.00159133
0.00167834
0.00166218
0.00160239
0.00311292
0.00159255
0.00168141
0.00166889
0.00161268
0.00311863
0.00159561
0.00168774
0.00167988
0.00162846
0.00312084
0.00159875
0.00169587
0.0016938
0.0016486
0.00311409
0.0015996
0.00170366
0.00170854
0.00167105
0.00309163
0.00159516
0.00170825
0.00172137
0.00169237
0.00304509
0.00158179
0.00170613
0.00172907
0.00170881
0.00296372
0.00155494
0.00169315
0.0017284
0.00171876
0.00283319
0.00150871
0.00166385
0.00171624
0.00172041
0.00263433
0.00143508
0.00161014
0.00168597
0.00170805
0.00234689
0.00132654
0.0015221
0.00161677
0.00166737
0.0019648
0.00117329
0.00138398
0.00149286
0.00156732
0.00157908
0.000966412
0.00118752
0.0013013
0.00139101
0.0014055
0.000732712
0.000910029
0.00102409
0.00112858
0.00216482
0.00151679
0.00162873
0.00180045
0.00200743
0.000938947
0.000489446
0.00055471
0.000638188
0.000496489
0.00130676
0.00203672
0.00244495
0.000566148
0.00191962
0.00274917
0.00319887
0.00062972
0.00230842
0.00315044
0.00356084
0.00068987
0.00251361
0.00336912
0.00374198
0.00363949
0.000755099
0.00263627
0.00349753
0.00383361
0.00367658
0.000824687
0.00270124
0.00356769
0.00387706
0.00368551
0.000898672
0.00272237
0.00359415
0.00388432
0.00367525
0.000977075
0.00270603
0.00358265
0.00386337
0.00365227
0.00105883
0.00265367
0.00353349
0.00381911
0.0036266
0.00114249
0.00256758
0.00344367
0.00374551
0.00359202
0.00122511
0.00244875
0.00331144
0.00364257
0.00356408
0.00130311
0.00228962
0.00314581
0.0035099
0.00351652
0.00137309
0.00209969
0.00295771
0.00335423
0.00344726
0.00143195
0.00192344
0.00276117
0.00318528
0.00335711
0.00147735
0.00177977
0.00256942
0.00301528
0.00325434
0.00150827
0.00167036
0.00239275
0.00285596
0.00315186
0.0015252
0.00159062
0.00222326
0.00271591
0.00306249
0.00153007
0.00153366
0.00205494
0.00260051
0.00299641
0.00152586
0.00149356
0.00191746
0.00251309
0.00295929
0.00151602
0.0014657
0.00181788
0.00245693
0.00294714
0.00150391
0.00144703
0.00175603
0.00242904
0.00295498
0.00149232
0.0014355
0.00172285
0.00242322
0.00297583
0.0014832
0.00142973
0.00171035
0.00243244
0.00300134
0.00147764
0.00142856
0.00171164
0.00244988
0.00302769
0.00147602
0.00143079
0.00172037
0.00246869
0.00304817
0.00147807
0.0014351
0.00173093
0.00248368
0.00305914
0.00148303
0.00144012
0.00173891
0.00249194
0.00306035
0.00148973
0.00144471
0.00174154
0.00249267
0.00305385
0.00149662
0.00144822
0.00173804
0.00248759
0.00304234
0.00150173
0.00145051
0.00172904
0.00248115
0.00303199
0.00150253
0.00145191
0.00171528
0.0024757
0.00302727
0.00149568
0.0014532
0.00169752
0.00247386
0.00301419
0.00147655
0.00145522
0.00167297
0.00247488
0.00297539
0.00143844
0.00145956
0.0016459
0.00244951
0.00290268
0.00137133
0.00146683
0.0016223
0.00236564
0.00278608
0.00126276
0.00147577
0.0015962
0.00216637
0.0026131
0.00110356
0.00147623
0.0015763
0.0019808
0.0023307
0.000904475
0.00145862
0.00156664
0.00185779
0.0021067
0.000765115
0.00139975
0.00155566
0.00177734
0.0019488
0.00160446
0.000853866
0.000933814
0.00100115
0.00107106
0.00096967
0.000495025
0.000551104
0.000729501
0.000517203
0.00171633
0.00245098
0.00280971
0.00058754
0.00242095
0.00336839
0.00383549
0.000653465
0.00282694
0.00385837
0.00430098
0.000718907
0.00306276
0.00411844
0.00452169
0.000788785
0.00320636
0.00427388
0.00464028
0.00440933
0.000862189
0.00328724
0.00436912
0.00470512
0.00443104
0.00093905
0.00332058
0.00442034
0.00472783
0.00442467
0.00101927
0.00331152
0.00443326
0.00471952
0.00439754
0.00110173
0.00325897
0.00440881
0.00469257
0.00437751
0.00118538
0.00316295
0.00434365
0.00464151
0.00435934
0.0012681
0.00302256
0.00423635
0.00456937
0.00437419
0.00134727
0.00285246
0.00409845
0.00447435
0.00439282
0.00142
0.00266761
0.00394144
0.00436655
0.00440741
0.0014831
0.00247694
0.00377852
0.00425533
0.00441111
0.00153384
0.00229131
0.00362078
0.00415397
0.00440893
0.00157062
0.00212494
0.0034781
0.00407394
0.00441355
0.00159318
0.00198613
0.00335625
0.00402349
0.00443663
0.00160281
0.00187745
0.00325736
0.00400727
0.00448474
0.00160214
0.00179758
0.00318395
0.00402531
0.00455675
0.00159465
0.00174353
0.00313861
0.00406811
0.00464371
0.00158401
0.00171157
0.00310982
0.00412212
0.00473184
0.0015734
0.00169761
0.00309827
0.00417783
0.00480763
0.00156517
0.00169733
0.003101
0.00422887
0.00485925
0.00156068
0.0017063
0.00311365
0.00426908
0.00488071
0.00156045
0.00172002
0.00313054
0.00429224
0.00487465
0.00156429
0.00173408
0.00314414
0.00429661
0.0048452
0.00157149
0.00174468
0.00314947
0.00428277
0.00479685
0.001581
0.00174928
0.00314492
0.00425147
0.00473311
0.00159147
0.00174697
0.00313417
0.00420561
0.00465338
0.00160131
0.00173804
0.00312168
0.00414981
0.00455333
0.00160851
0.00172367
0.00310665
0.00407424
0.00443311
0.00161051
0.00170534
0.00309626
0.00395826
0.00428877
0.00160361
0.00168625
0.00305945
0.00380878
0.0041183
0.00158137
0.00168211
0.00295232
0.00362818
0.00392176
0.00153108
0.0016652
0.00277825
0.00342153
0.00370664
0.00144233
0.00164525
0.00255119
0.00319631
0.00348777
0.00130285
0.00163413
0.0023176
0.00290663
0.00324913
0.00111068
0.00164103
0.0021497
0.00262609
0.00294281
0.000921128
0.00164531
0.00203526
0.0023684
0.00258263
0.0018969
0.000974567
0.00105254
0.00111404
0.00117647
0.00100382
0.000517147
0.000643675
0.000852012
0.000539268
0.00184755
0.00255183
0.00291587
0.000608768
0.00259577
0.00356306
0.00402876
0.000677806
0.00300998
0.00407487
0.00449087
0.000747472
0.0032402
0.00432084
0.00469106
0.000821479
0.00337269
0.00445282
0.00479635
0.000898917
0.00344273
0.0045271
0.00484576
0.00456103
0.000979531
0.00346571
0.00455852
0.00484867
0.0045359
0.00106294
0.00344449
0.00454969
0.00481771
0.00448218
0.00114772
0.00337564
0.00450028
0.00477101
0.00446036
0.00123305
0.00325873
0.00440603
0.00469794
0.00445203
0.00131719
0.00309294
0.00426723
0.00459951
0.00447899
0.00139796
0.00289726
0.00410147
0.00447919
0.00450731
0.00147281
0.00268832
0.00391931
0.00435278
0.00452282
0.00153851
0.00249168
0.0037328
0.00423794
0.00452415
0.00159084
0.00230133
0.00356587
0.00415101
0.0045284
0.00162853
0.0021383
0.00343769
0.00410608
0.0045584
0.00165227
0.00201224
0.00336028
0.00411113
0.00462663
0.00166383
0.00192497
0.00333946
0.00416722
0.00473265
0.00166437
0.00186126
0.00337309
0.00426678
0.00486341
0.00165747
0.00181669
0.00345243
0.00439397
0.00499785
0.00164735
0.0018003
0.00354676
0.00452685
0.00511343
0.00163755
0.00180817
0.00364258
0.00464547
0.00519408
0.00163049
0.00183263
0.00373278
0.00473434
0.00523342
0.00162745
0.00186578
0.00381124
0.0047837
0.00523069
0.00162872
0.00189962
0.00386843
0.00479716
0.00518989
0.00163386
0.00192771
0.00390311
0.004779
0.00511774
0.00164195
0.00194592
0.00391596
0.00473264
0.00502076
0.00165183
0.00195284
0.00391212
0.0046564
0.00490391
0.0016623
0.00194876
0.00389261
0.00455055
0.00477017
0.00167214
0.0019352
0.00384938
0.00442008
0.00462186
0.00168029
0.0019312
0.00375889
0.00426657
0.00445864
0.00168579
0.00194639
0.00362624
0.00409247
0.00427935
0.00168672
0.00197676
0.00346899
0.00390068
0.00408115
0.00167657
0.00198621
0.00328942
0.00368924
0.00386072
0.00164593
0.00194595
0.00307994
0.00345743
0.0036234
0.00158223
0.00186192
0.0028378
0.00321535
0.00338979
0.00146917
0.00176972
0.00257242
0.00298761
0.00319966
0.00129903
0.00171479
0.00236197
0.00278505
0.00303924
0.00109672
0.00172155
0.00220986
0.00254124
0.00273516
0.00221851
0.00108437
0.00115766
0.00121856
0.00127841
0.00102719
0.000540321
0.000775452
0.000982279
0.000556124
0.00192956
0.00265269
0.00301859
0.000628934
0.00272491
0.00370587
0.00416747
0.000704991
0.00314746
0.00419646
0.00459699
0.000781307
0.00335383
0.00441721
0.00476337
0.000861849
0.00346309
0.00452424
0.00484867
0.000944177
0.00351408
0.00457019
0.00488275
0.00102749
0.00352028
0.00457433
0.00486698
0.0045749
0.00111131
0.00348159
0.00453494
0.00481537
0.00451275
0.00119461
0.00339292
0.00444988
0.00474745
0.00450846
0.00127804
0.00325453
0.00431494
0.00464408
0.00451255
0.00136002
0.00306556
0.00413423
0.00450546
0.0045459
0.00143858
0.00285077
0.00392174
0.00435049
0.00456009
0.00150872
0.00259349
0.00370007
0.0042013
0.00453934
0.00156798
0.00235155
0.00350075
0.00408262
0.00450452
0.00161445
0.00215233
0.00334604
0.00401271
0.00449234
0.0016474
0.0020028
0.00325118
0.00400291
0.00452996
0.00166764
0.00190071
0.00322381
0.00405365
0.00461858
0.00167721
0.00184048
0.0032643
0.00415643
0.00474356
0.0016788
0.00181873
0.00336443
0.00429353
0.00488063
0.00167548
0.00183248
0.00350838
0.00444151
0.00500387
0.00166876
0.00186455
0.00367205
0.00457641
0.00509236
0.00166124
0.00190047
0.00383069
0.0046806
0.00513608
0.00165622
0.00194032
0.00396422
0.00474526
0.0051358
0.00165511
0.00198627
0.00405589
0.00476761
0.00509652
0.00165792
0.00202841
0.00411149
0.00475062
0.00502552
0.0016638
0.00206073
0.00413575
0.00470006
0.00493084
0.00167154
0.00208617
0.00412614
0.00462125
0.0048193
0.00167993
0.00211462
0.00407855
0.00451903
0.00469623
0.00168797
0.00215188
0.00400089
0.00439918
0.00456517
0.00169519
0.00220795
0.00390208
0.0042674
0.00442776
0.00170216
0.00229467
0.00379236
0.00412763
0.00428236
0.00171079
0.00242711
0.00367827
0.00397947
0.00412413
0.0017215
0.00256424
0.00355246
0.0038147
0.00394334
0.00172721
0.00261461
0.00339366
0.00362123
0.00373177
0.00171696
0.00253311
0.00318694
0.00339633
0.00349413
0.0016775
0.0023277
0.00293236
0.00315022
0.00325213
0.00159283
0.00204868
0.00262714
0.00289347
0.00303378
0.0014544
0.00181808
0.00234161
0.0026701
0.00288107
0.00126936
0.00171342
0.00216231
0.00245854
0.00263654
0.0025625
0.00120677
0.00126946
0.0013312
0.00139097
0.00106047
0.000605996
0.00089972
0.00110402
0.00057221
0.00198989
0.00277866
0.00314068
0.000652323
0.00283156
0.00384789
0.00430296
0.000741979
0.00325524
0.00429881
0.00469081
0.000829368
0.00344318
0.00448193
0.00482281
0.000915243
0.00352788
0.0045654
0.0048904
0.000999822
0.00355962
0.00458421
0.00491349
0.00108322
0.00354778
0.00456093
0.0048863
0.00116551
0.00348984
0.00448987
0.00482008
0.00460267
0.00124543
0.00338092
0.00436799
0.00473079
0.0046229
0.00132256
0.00322378
0.00419409
0.00459393
0.00462251
0.00139747
0.00301296
0.00397228
0.00442028
0.00465227
0.00146641
0.00274772
0.00373867
0.00424627
0.00463643
0.0015263
0.00249292
0.00352865
0.00409782
0.0045689
0.00157483
0.00228665
0.0033718
0.00400523
0.00450912
0.00161095
0.00213845
0.00328104
0.00397987
0.00450279
0.00163493
0.00204528
0.00326072
0.00402035
0.00456081
0.00164834
0.00199964
0.00330543
0.00411184
0.00466161
0.00165369
0.00199428
0.00340416
0.00423466
0.00477895
0.00165383
0.00202015
0.00354016
0.00436566
0.00488764
0.00165157
0.00207099
0.0036923
0.0044829
0.00496827
0.00164895
0.00214358
0.00383904
0.0045704
0.00501003
0.00164633
0.00222028
0.00396151
0.00462064
0.00501154
0.00164516
0.00228435
0.00404925
0.00463351
0.00497819
0.00164683
0.00233784
0.00409879
0.00461271
0.00491691
0.00165119
0.00238454
0.00411217
0.00456403
0.00483506
0.00165723
0.00243025
0.00409484
0.00449424
0.00473962
0.00166376
0.00248394
0.00405365
0.00441002
0.00463658
0.00166988
0.00255766
0.00399674
0.004318
0.00453058
0.00167565
0.00266559
0.00393283
0.00422353
0.00442402
0.00168296
0.00281676
0.00386626
0.00412756
0.00431497
0.00169411
0.00298039
0.00379425
0.00402568
0.00419752
0.00170902
0.00308715
0.00370277
0.00390718
0.00406108
0.00172332
0.003079
0.00357303
0.00375848
0.00389195
0.00173191
0.00297485
0.00340278
0.00357455
0.00368492
0.00172849
0.00280855
0.00320167
0.00336287
0.00344968
0.00170492
0.0025902
0.0029751
0.00313734
0.00321228
0.0016483
0.00227692
0.0026968
0.00289032
0.00298358
0.00155143
0.00190969
0.00231496
0.00258355
0.00276507
0.00141112
0.00169076
0.0020655
0.00232744
0.00248959
0.00288458
0.00133625
0.00138822
0.00145296
0.00151571
0.00114714
0.000731408
0.00101362
0.00121273
0.000607112
0.00205038
0.00292546
0.00327668
0.000701411
0.00292461
0.00398267
0.00443428
0.00079814
0.00334099
0.00438276
0.0047759
0.000887911
0.00351082
0.00452861
0.00487912
0.00097427
0.00357621
0.00458664
0.00493134
0.00105748
0.00359092
0.00457978
0.0049473
0.00113773
0.00356206
0.00453063
0.00491618
0.00121514
0.00348667
0.00443024
0.00483962
0.00128866
0.00336168
0.0042769
0.00472766
0.00478785
0.00135889
0.0031917
0.00407566
0.00456188
0.00477101
0.00142374
0.00294747
0.00383652
0.00437246
0.00479253
0.00148057
0.00269719
0.00362513
0.00420207
0.00473871
0.00152713
0.00249098
0.00346843
0.00408028
0.00463341
0.00156193
0.00235157
0.00338654
0.00403587
0.0045773
0.00158508
0.00227724
0.00337682
0.00406298
0.00459738
0.00159808
0.00226065
0.00342999
0.00414235
0.00467363
0.00160342
0.00229177
0.0035276
0.00424759
0.00476922
0.001604
0.00236075
0.00364933
0.00435622
0.00486053
0.00160256
0.00245703
0.0037745
0.00444938
0.00493102
0.00160138
0.00256861
0.00388647
0.00451484
0.00497169
0.00160182
0.00268007
0.00397432
0.0045481
0.00498014
0.00160411
0.00277492
0.00403316
0.00455082
0.00495898
0.00160812
0.00285324
0.00406304
0.00452738
0.00491355
0.00161317
0.00290832
0.00406613
0.00448359
0.00484992
0.00161918
0.00295681
0.00404826
0.00442581
0.00477399
0.00162562
0.00301212
0.00401592
0.00436028
0.00469143
0.00163212
0.00308381
0.00397528
0.00429243
0.004607
0.00163889
0.00317312
0.00393161
0.00422619
0.00452355
0.0016465
0.00326278
0.00388467
0.00416129
0.00444059
0.00165437
0.00329826
0.00382427
0.0040907
0.00435207
0.00166136
0.00326774
0.00374262
0.00400614
0.00424966
0.00166579
0.00319154
0.00364081
0.00390041
0.0041218
0.00166557
0.00308977
0.00352181
0.00376754
0.00395616
0.00166196
0.00297688
0.0033877
0.0036063
0.00375053
0.00165675
0.00285475
0.00323875
0.00342218
0.00351674
0.00164951
0.00270872
0.00307445
0.0032303
0.00328801
0.00162423
0.00250291
0.00288385
0.00303954
0.00308194
0.00157524
0.00205499
0.00243171
0.0026485
0.00277849
0.00150325
0.00171605
0.00203095
0.00225008
0.00237785
0.00314232
0.00146282
0.00151109
0.00158228
0.00165148
0.00130958
0.000850734
0.00111646
0.00130665
0.000686344
0.00211314
0.0030686
0.00342052
0.000776234
0.003013
0.0041021
0.00455855
0.000868352
0.00341413
0.00444767
0.0048529
0.000953885
0.00356378
0.00455605
0.00493282
0.00103591
0.00361218
0.00458975
0.00497459
0.00111431
0.00361142
0.00456079
0.00498528
0.00118881
0.00356714
0.00448878
0.0049548
0.00125922
0.00347744
0.00436524
0.00487171
0.00132423
0.00334233
0.00419247
0.00473977
0.00138459
0.00316012
0.0039776
0.00456398