/*--------------------------------*- C++ -*----------------------------------*\
| =========                 |                                                 |
| \\      /  F ield         | OpenFOAM: The Open Source CFD Toolbox           |
|  \\    /   O peration     | Version:  2.3.1                                 |
|   \\  /    A nd           | Web:      www.OpenFOAM.org                      |
|    \\/     M anipulation  |                                                 |
\*---------------------------------------------------------------------------*/
FoamFile
{
    version     2.0;
    format      ascii;
    class       volScalarField;
    location    "600";
    object      epsilon;
}
// * * * * * * * * * * * * * * * * * * * * * * * * * * * * * * * * * * * * * //

dimensions      [0 2 -3 0 0 0 0];

internalField   nonuniform List<scalar> 
6852
(
0.00221118
0.00483107
0.0105444
0.0195178
0.0287892
0.00488188
0.0174993
0.0345751
0.0518851
0.0637126
0.00815347
0.0279883
0.0479723
0.0628709
0.0683361
0.0112188
0.0347897
0.0541969
0.0639886
0.0616578
0.0148122
0.0408599
0.057453
0.0613308
0.0528645
0.0197355
0.0505748
0.0679266
0.0711835
0.0612803
0.0260208
0.0631137
0.0824644
0.0862649
0.0755168
0.0335656
0.0780369
0.100239
0.105487
0.0943533
0.0421377
0.0949549
0.120888
0.12872
0.118096
0.0512616
0.113062
0.143532
0.15526
0.146538
0.0602219
0.131143
0.16678
0.183727
0.178562
0.0681151
0.147532
0.188577
0.212105
0.213579
0.0740459
0.16046
0.206485
0.237156
0.247941
0.0773686
0.168498
0.218324
0.255306
0.276185
0.0778476
0.170909
0.222822
0.264013
0.293755
0.0756786
0.167775
0.21992
0.262523
0.298228
0.0713812
0.159886
0.210644
0.251929
0.29001
0.0656315
0.148439
0.196664
0.234566
0.271764
0.0591043
0.134734
0.179805
0.213168
0.24717
0.0524426
0.119785
0.161652
0.19019
0.219775
0.0459745
0.10456
0.14336
0.167444
0.192306
0.0398643
0.0903034
0.125168
0.146006
0.166477
0.0342354
0.0771524
0.108016
0.126146
0.143115
0.0290003
0.0651471
0.0921858
0.108243
0.122195
0.0241033
0.0542416
0.077652
0.0922282
0.104073
0.0195421
0.0443474
0.0643529
0.077776
0.0882756
0.0153424
0.0353899
0.0522288
0.0646187
0.074301
0.0115508
0.0273413
0.041249
0.0525754
0.0617323
0.00823843
0.0203314
0.0314663
0.0415825
0.0502838
0.00549977
0.0145184
0.0230346
0.031729
0.0398477
0.00347894
0.0100307
0.0161619
0.0232418
0.0305147
0.0024335
0.00704909
0.011233
0.0165268
0.0226034
0.00200498
0.00542634
0.00831242
0.0119115
0.0165504
0.0018411
0.0046192
0.00685655
0.00945108
0.0127319
0.00187494
0.00430971
0.0060846
0.00827765
0.0107923
0.00192485
0.0040446
0.00542375
0.00729138
0.0095078
0.00188386
0.00366801
0.00475036
0.0063098
0.0083329
0.00173591
0.00320923
0.0041435
0.00540632
0.0072027
0.00153025
0.00286359
0.00377732
0.00482213
0.0063939
0.00136312
0.0028385
0.00377616
0.00474294
0.00607769
0.000935574
0.00181903
0.00245405
0.0029177
0.00349764
0.00285072
0.00705185
0.0168124
0.0316238
0.0462093
0.00804832
0.010722
0.0158506
0.0198247
0.0210753
0.0112031
0.0125971
0.0159985
0.0167406
0.0146188
0.0139336
0.0132111
0.0141784
0.011801
0.00810846
0.0175669
0.0136593
0.0124612
0.00872228
0.00616527
0.0227441
0.015234
0.0128333
0.00857554
0.00655638
0.0296508
0.0177973
0.014674
0.00991097
0.00754232
0.0383211
0.021116
0.0175082
0.012104
0.00884069
0.0486983
0.0250179
0.0211528
0.0150507
0.0104566
0.0605281
0.0293013
0.0254789
0.018802
0.0126277
0.0732894
0.0337098
0.0303505
0.0235799
0.0162677
0.0861678
0.0378868
0.0354437
0.0292335
0.0212103
0.0981291
0.0414164
0.0402153
0.0352017
0.0271351
0.108148
0.0439363
0.0440922
0.0407825
0.0337038
0.115438
0.0452292
0.0466193
0.0452057
0.0398411
0.119587
0.0452644
0.0475825
0.0479282
0.0445471
0.12058
0.0441803
0.0470329
0.0487742
0.0472422
0.118714
0.0422256
0.0452251
0.047912
0.0478532
0.114465
0.0396915
0.0425158
0.0457279
0.0466989
0.108379
0.0368428
0.0392692
0.0426781
0.0442838
0.100935
0.033891
0.0357949
0.0391799
0.0411238
0.0925163
0.031009
0.0322968
0.0355541
0.0376443
0.083237
0.0282974
0.0289387
0.0320035
0.0341457
0.0732847
0.0259099
0.0258254
0.0286601
0.0307962
0.0631309
0.0238455
0.0230051
0.0255942
0.0276998
0.0532399
0.0219938
0.0204929
0.0228241
0.0248929
0.0438678
0.0202528
0.0183126
0.0203351
0.0223669
0.0352049
0.0185691
0.016474
0.018116
0.0200764
0.0273769
0.0169171
0.0149298
0.0161873
0.018027
0.0204022
0.0152535
0.0136329
0.0145346
0.0161951
0.014359
0.0135531
0.0125399
0.0131471
0.01457
0.00936539
0.0118168
0.0115947
0.012017
0.0131609
0.00559322
0.0100285
0.0106863
0.0111282
0.0119954
0.00344021
0.00834394
0.00972637
0.010378
0.0110863
0.00310332
0.00686458
0.00865812
0.00961947
0.0103508
0.00320762
0.0055787
0.00746145
0.00870568
0.00959655
0.00319737
0.00420195
0.00612084
0.00748904
0.00856095
0.00293038
0.00277469
0.00468297
0.0060517
0.00716007
0.00260093
0.00192771
0.00342983
0.00464324
0.00565707
0.00243129
0.00187509
0.00265198
0.003792
0.00461789
0.00148328
0.00366244
0.00511126
0.00631838
0.00792968
0.00283914
0.00702545
0.0169445
0.0315037
0.046095
0.00773916
0.00801592
0.0112024
0.0137176
0.0143157
0.00996444
0.00793616
0.00891676
0.00868293
0.0073228
0.0123423
0.00763663
0.00724134
0.00604096
0.00512153
0.0157495
0.00750153
0.00616716
0.00482364
0.00457939
0.0205536
0.00785611
0.00583722
0.00448674
0.00458037
0.0269637
0.00866898
0.00603021
0.00455331
0.00475471
0.0350976
0.00986484
0.00659946
0.00485658
0.00503256
0.0450174
0.0113781
0.00747407
0.00534442
0.0053752
0.0566559
0.0131412
0.00861924
0.0060097
0.00572654
0.0697094
0.0150702
0.0100106
0.00688366
0.00604476
0.083558
0.0170465
0.0115925
0.00803226
0.00643536
0.0972745
0.0189169
0.0132347
0.00945654
0.00712565
0.109809
0.020527
0.0147579
0.0110366
0.0081281
0.120207
0.0217561
0.0159844
0.0125733
0.00938566
0.127779
0.0225411
0.0167884
0.0138579
0.0107135
0.13219
0.0228799
0.0171216
0.0147393
0.0118787
0.133439
0.0228194
0.0170094
0.0151586
0.0127114
0.131776
0.0224356
0.0165281
0.0151415
0.0131439
0.127605
0.0218132
0.0157769
0.0147673
0.0131973
0.121382
0.0210306
0.0148547
0.0141359
0.0129446
0.113522
0.0201571
0.0138442
0.0133434
0.0124757
0.104214
0.0193939
0.0128129
0.0124678
0.0118748
0.0940322
0.0187143
0.0118094
0.0115678
0.0112077
0.0834554
0.0180887
0.0108666
0.0106837
0.0105219
0.0728176
0.0174244
0.0100602
0.00984091
0.00984806
0.0623469
0.0167049
0.0093882
0.0090569
0.00920258
0.05216
0.0159128
0.00884264
0.00834757
0.00858771
0.0423624
0.0150299
0.00840894
0.00772535
0.00801059
0.0331702
0.0140418
0.00806597
0.0071978
0.00747713
0.0247989
0.0129418
0.00778746
0.0067667
0.00699211
0.0174431
0.0117364
0.00754456
0.00642817
0.00656089
0.0112783
0.010446
0.0073039
0.0061709
0.00618753
0.00647749
0.0091043
0.00703352
0.00597568
0.00587677
0.00322228
0.00778701
0.00671882
0.00581488
0.00562739
0.00267251
0.00672529
0.00636709
0.00566716
0.00542559
0.00296991
0.00570487
0.00590464
0.00549721
0.00526237
0.00300026
0.00445278
0.00520069
0.0051774
0.00509716
0.00280091
0.00294482
0.00426343
0.00467229
0.00487328
0.00267642
0.00202538
0.00343277
0.00432567
0.00486
0.00168165
0.0042865
0.00600358
0.00746688
0.00913961
0.00258913
0.00638508
0.0155434
0.0291451
0.0435503
0.0071865
0.00660842
0.00997118
0.0133861
0.0154183
0.009388
0.00623513
0.00755479
0.00846991
0.00859787
0.0121693
0.00582023
0.00612194
0.00638109
0.00671835
0.0162792
0.00559649
0.00524187
0.00543357
0.00622686
0.0221381
0.00569185
0.00476594
0.00506354
0.0062913
0.0300096
0.00611439
0.00456743
0.00494796
0.0065057
0.0397956
0.0069724
0.0045795
0.00494098
0.00678686
0.0513737
0.00828564
0.00476876
0.00496226
0.00704038
0.0645815
0.00997981
0.0051354
0.00497352
0.0071289
0.0789488
0.011969
0.00571701
0.004989
0.00696457
0.0936857
0.0141672
0.00647433
0.00510636
0.00655406
0.107769
0.0164178
0.00733145
0.00542584
0.00609383
0.120143
0.0185429
0.00819589
0.00589989
0.00588253
0.129915
0.0203849
0.00897582
0.00644714
0.00589891
0.136504
0.0218322
0.00959852
0.00697591
0.00607378
0.139693
0.0228313
0.0100234
0.00741028
0.00631978
0.139597
0.0233834
0.0102431
0.00770447
0.00655735
0.136572
0.0235302
0.0102768
0.00784429
0.0067306
0.131107
0.0233368
0.010159
0.00784046
0.00681238
0.123731
0.0228766
0.00993028
0.00771849
0.00679971
0.11494
0.0222176
0.00962988
0.00750947
0.00670483
0.105157
0.021432
0.00929257
0.00724375
0.00654678
0.0947682
0.0205684
0.00894656
0.00694774
0.00634553
0.0840889
0.019658
0.00861308
0.0066428
0.00611896
0.0733597
0.0187117
0.0083107
0.00634577
0.00588169
0.0627684
0.0177306
0.00804874
0.00606952
0.00564503
0.0524731
0.0167076
0.00782905
0.00582414
0.00541695
0.0426295
0.0156303
0.00764691
0.00561722
0.00520418
0.0334159
0.0144861
0.00749166
0.00545344
0.00501303
0.0250358
0.0132657
0.0073469
0.00533335
0.00484833
0.0176836
0.0119681
0.00719121
0.00525237
0.00471387
0.0115257
0.010605
0.00699882
0.00519818
0.00460789
0.00673926
0.00921003
0.00674439
0.00515165
0.004526
0.00340545
0.00784196
0.00641038
0.00508937
0.00446108
0.00242706
0.00678394
0.00602805
0.00499596
0.00440404
0.00286272
0.00587669
0.00559896
0.0048568
0.00434679
0.00301273
0.00479601
0.00505176
0.00464555
0.00428574
0.00289859
0.00331109
0.00434761
0.00438719
0.00430875
0.00277735
0.0021859
0.00366358
0.00435331
0.00469385
0.00173631
0.00451334
0.00627945
0.007611
0.00895158
0.00199818
0.00445682
0.0111561
0.022
0.0348401
0.00573914
0.00521103
0.00874863
0.0132377
0.0170095
0.00823561
0.00526131
0.00742118
0.010014
0.01192
0.0116853
0.00511349
0.00641599
0.0084326
0.0104809
0.0165579
0.00534305
0.00564825
0.00750547
0.0100827
0.0230672
0.00620583
0.00526393
0.00682545
0.0101274
0.0314289
0.00766655
0.00531658
0.0064465
0.0100209
0.041631
0.00968714
0.00576199
0.00639759
0.00952839
0.0534616
0.0122041
0.00654625
0.00663762
0.00936799
0.0665102
0.015119
0.00761148
0.00712237
0.00945158
0.0801075
0.0182874
0.00889142
0.00779951
0.00974181
0.0933403
0.0215162
0.010297
0.00861101
0.010183
0.105186
0.0245546
0.0117066
0.00948066
0.0106851
0.114733
0.0271687
0.0130056
0.0103324
0.0111867
0.121338
0.02919
0.0141062
0.0111023
0.0116418
0.12471
0.0305352
0.0149569
0.0117475
0.0120215
0.124907
0.0312062
0.0155448
0.0122493
0.012316
0.122257
0.0312713
0.015888
0.0126088
0.0125279
0.11725
0.0308371
0.0160231
0.0128402
0.0126657
0.110435
0.0300232
0.0159944
0.0129638
0.0127392
0.102342
0.0289427
0.015845
0.0130011
0.0127581
0.0934216
0.0276897
0.0156114
0.012971
0.0127301
0.0840338
0.0263362
0.0153216
0.0128879
0.0126602
0.0744549
0.0249312
0.0149939
0.0127611
0.012551
0.0648924
0.0235023
0.0146384
0.0125958
0.0124033
0.0555033
0.0220591
0.0142586
0.0123942
0.0122165
0.0464142
0.0205969
0.0138528
0.012157
0.0119906
0.0377419
0.019103
0.0134154
0.0118847
0.0117268
0.0296112
0.0175614
0.0129376
0.0115774
0.0114276
0.0221657
0.0159599
0.0124088
0.0112354
0.0110975
0.015582
0.014294
0.0118165
0.0108577
0.0107414
0.0100634
0.0125789
0.0111478
0.0104409
0.0103655
0.00585988
0.0108496
0.0103901
0.00997419
0.00996525
0.00299177
0.0091961
0.0095409
0.00944304
0.00953139
0.00261751
0.00782251
0.00863636
0.00884171
0.00905813
0.00294734
0.00669701
0.00773174
0.00818141
0.00854289
0.00319782
0.00558663
0.00682075
0.00745884
0.00797407
0.00315192
0.00419999
0.00583804
0.00664673
0.0073178
0.00286741
0.0024771
0.00480674
0.0057926
0.0066036
0.00269038
0.00220744
0.00354682
0.00503923
0.00596502
0.0016525
0.00421956
0.00574373
0.00694282
0.00813369
0.00109789
0.00189166
0.00389654
0.0081582
0.0140475
0.00241284
0.00471144
0.00832767
0.0154588
0.0247334
0.00401136
0.00684027
0.0103297
0.0181734
0.0300751
0.00634132
0.00978905
0.0133661
0.0219416
0.0365219
0.00957835
0.013873
0.0174953
0.0271648
0.0439553
0.0137833
0.0193254
0.022893
0.0337517
0.0519853
0.0189397
0.0261973
0.0297049
0.0418441
0.0609288
0.0249297
0.0343597
0.0379169
0.0515263
0.0711988
0.0315281
0.0435251
0.0473303
0.0627083
0.0834996
0.0383968
0.053263
0.057528
0.0749771
0.0978012
0.0450887
0.0630077
0.0678807
0.0874989
0.113266
0.0510851
0.0720863
0.07758
0.0989107
0.127465
0.0559044
0.079847
0.085857
0.108012
0.137815
0.0592263
0.085888
0.0923428
0.114484
0.144001
0.0609238
0.0900747
0.0970113
0.118516
0.14649
0.0610474
0.0924779
0.100059
0.12058
0.146235
0.059781
0.0932957
0.101784
0.121243
0.144315
0.0573819
0.0927706
0.102468
0.120974
0.141567
0.0541268
0.0911314
0.102323
0.120084
0.138496
0.0502727
0.0885626
0.10147
0.118727
0.135339
0.0460344
0.0851944
0.0999418
0.116926
0.132136
0.0415754
0.0811049
0.0977068
0.114617
0.128814
0.0370119
0.0763336
0.094686
0.11168
0.125232
0.0324251
0.0709
0.0907801
0.10797
0.121224
0.0278742
0.0648238
0.0858945
0.103346
0.116617
0.0234088
0.0581448
0.0799687
0.0976915
0.111255
0.0190808
0.0509432
0.0730023
0.0909439
0.105015
0.0149536
0.0433573
0.0650739
0.0831033
0.0978072
0.0111108
0.0355961
0.0563599
0.0742498
0.0895881
0.00766141
0.0279395
0.0471435
0.0645519
0.0803528
0.00476901
0.0207446
0.0378241
0.0542954
0.070183
0.0027112
0.0144634
0.0289132
0.0438962
0.0592885
0.00192204
0.00961791
0.021
0.0338966
0.0480114
0.00159023
0.00618472
0.0145284
0.0249237
0.0370445
0.00156544
0.00387851
0.00967305
0.0174761
0.0271212
0.00166256
0.00303997
0.00650462
0.0118226
0.018805
0.00172834
0.00307944
0.00441309
0.00778295
0.0123555
0.00169079
0.00299506
0.00307694
0.0050891
0.00779901
0.00158748
0.00296003
0.00343249
0.00372459
0.00539083
0.00151943
0.003299
0.00421177
0.00475859
0.005371
0.00108475
0.00219005
0.00287243
0.00318777
0.00340195
7.00699e-05
0.000133775
0.000188018
0.000250127
0.000130592
0.000340342
0.000526985
0.000769507
0.000180231
0.000493979
0.00079005
0.00108364
0.000237933
0.000662376
0.00102227
0.00127969
0.00139072
0.000311951
0.00083672
0.00122456
0.00144604
0.00142949
0.000417094
0.00104563
0.00145622
0.00165726
0.00157475
0.000564351
0.0013138
0.00174703
0.0019406
0.00182451
0.0007638
0.00165486
0.00210293
0.00229023
0.00215433
0.00102655
0.00208693
0.00253708
0.00271776
0.00257893
0.00135926
0.00262412
0.00305592
0.0032262
0.00310657
0.00176206
0.0032828
0.00367228
0.00382729
0.00376917
0.00221808
0.0040573
0.00437095
0.00448028
0.00448228
0.00269453
0.00491516
0.00514061
0.00515107
0.00512851
0.00315063
0.00579795
0.0059761
0.00584664
0.0057294
0.00354681
0.00664928
0.00685622
0.00656577
0.00630254
0.00385253
0.00740672
0.00773675
0.00728435
0.00684558
0.0040521
0.00801423
0.00855104
0.0079549
0.00734082
0.00414626
0.00843245
0.00920656
0.00852469
0.00775448
0.00415027
0.00864944
0.00962603
0.00894713
0.00805474
0.00408964
0.00868956
0.00982728
0.00920041
0.00822734
0.00399329
0.00860052
0.00985222
0.00929449
0.0082801
0.00388714
0.00843748
0.00975706
0.00926551
0.00823008
0.00379054
0.00825063
0.00960071
0.0091648
0.00812833
0.00371542
0.00807827
0.00943436
0.00904428
0.0080227
0.00366721
0.0079453
0.00929681
0.00894718
0.00794988
0.0036461
0.00786413
0.0092134
0.00890464
0.00793804
0.00364789
0.00783606
0.00919615
0.00893407
0.0080046
0.00366454
0.00785274
0.00924483
0.00904073
0.00815794
0.00368435
0.00789697
0.00934793
0.00921858
0.00839801
0.00369187
0.00794268
0.00948221
0.00944786
0.00871186
0.00366778
0.00795465
0.0096123
0.00969521
0.00907093
0.00358894
0.00788818
0.00968918
0.00991398
0.00942124
0.00342944
0.00769132
0.00965254
0.0100467
0.00969735
0.00316209
0.00730644
0.0094336
0.0100344
0.00986699
0.00276284
0.00667447
0.00895258
0.00982418
0.00989538
0.00222149
0.00574498
0.00811413
0.00931442
0.00968399
0.00157127
0.00453843
0.00685568
0.00821515
0.00900923
0.000922354
0.00314116
0.00515467
0.00646869
0.00748419
0.000478851
0.00175599
0.00325725
0.00428539
0.00523306
0.000337564
0.000765438
0.00146654
0.00208939
0.00279558
0.000243618
0.000424222
0.00052524
0.000709387
0.000983104
0.000100752
0.000228459
0.000332214
0.00050588
0.00023849
0.00022095
0.000362229
0.000546728
0.000353605
0.000314007
0.000480237
0.000640359
0.000486262
0.000416918
0.000585517
0.000714033
0.000639347
0.000510611
0.000672855
0.000779494
0.000806477
0.000838345
0.000602223
0.000755456
0.000846261
0.00084864
0.00109205
0.000693222
0.000835369
0.000916769
0.000908424
0.001413
0.000784839
0.000912857
0.000988817
0.000977994
0.00181595
0.000877871
0.000987306
0.00106187
0.00105834
0.00231102
0.000971419
0.00105629
0.00113384
0.00115068
0.00290337
0.00106522
0.00111646
0.00119738
0.00124545
0.00358026
0.00115809
0.00116563
0.0012498
0.00133102
0.004309
0.00126674
0.00120793
0.00129003
0.00138561
0.00504155
0.00140947
0.00124861
0.00132298
0.00142175
0.0057183
0.00157472
0.00129069
0.00135333
0.00144804
0.00627972
0.0017467
0.00133497
0.00138483
0.00147228
0.00668195
0.00190912
0.00138024
0.00141849
0.00149928
0.00690886
0.00204723
0.00143804
0.00145333
0.00152993
0.00697444
0.00215147
0.00152213
0.00148716
0.00156248
0.00691596
0.0022174
0.0016024
0.0015166
0.00159407
0.00678187
0.00224722
0.00166309
0.00153986
0.00162054
0.00661948
0.00224815
0.0016978
0.00155607
0.00163891
0.00646637
0.00223026
0.00171264
0.0015658
0.00164887
0.00634727
0.00220366
0.00171548
0.00157072
0.00165192
0.00627507
0.00217681
0.00171352
0.00157293
0.00165033
0.00625333
0.0021557
0.00171228
0.0015743
0.00164704
0.0062784
0.00214357
0.00171508
0.00157664
0.00164571
0.00634093
0.00214113
0.00172314
0.00158186
0.00165052
0.0064265
0.00214691
0.00173593
0.00159181
0.00166589
0.00651549
0.00215793
0.00175166
0.00160821
0.00169563
0.00658208
0.00217039
0.00176869
0.0016332
0.00174285
0.00659241
0.00218009
0.00178591
0.00166823
0.00180936
0.00650274
0.00218373
0.00180323
0.00171336
0.00188673
0.00625694
0.00217909
0.00182541
0.00176622
0.00195818
0.00578558
0.00216139
0.0018566
0.00181286
0.00200569
0.00501401
0.00211965
0.00189416
0.0018441
0.0020131
0.00391596
0.00203257
0.00192114
0.00193291
0.00199073
0.00261462
0.00185721
0.00188015
0.00198458
0.00204983
0.00143997
0.00156133
0.00171097
0.00189154
0.00202432
0.000871534
0.00119258
0.00141942
0.00162052
0.00179184
0.00050218
0.00121134
0.00158415
0.0019516
0.00238903
0.000110934
0.000236476
0.000325827
0.000756395
0.000269709
0.000259264
0.00047738
0.000655439
0.000395029
0.000381934
0.000572512
0.000696865
0.000543224
0.000497896
0.000660788
0.000750426
0.000723295
0.000603802
0.000741722
0.00080605
0.0009553
0.000705605
0.000820005
0.000867978
0.000880868
0.00124743
0.000802885
0.00089222
0.000930008
0.000940833
0.00161148
0.000895049
0.00095744
0.000990159
0.00100714
0.00206061
0.000980195
0.00101218
0.0010451
0.00107855
0.00260233
0.00105471
0.00105186
0.00109055
0.00115484
0.00324159
0.00111649
0.0010711
0.00111537
0.00121879
0.00396933
0.00116389
0.00106885
0.00111747
0.00125016
0.00476105
0.00120109
0.0010536
0.00110622
0.00124388
0.00557548
0.0012325
0.00103253
0.00109022
0.00122449
0.0063532
0.0012625
0.00101141
0.00107657
0.00120696
0.00702836
0.00129482
0.000993204
0.00107015
0.00120013
0.0075462
0.00132911
0.000978871
0.00107349
0.00120854
0.00787552
0.00135942
0.000968639
0.0010871
0.00123226
0.00801823
0.001381
0.000962574
0.0011103
0.00126857
0.00800689
0.00139177
0.000959578
0.0011412
0.00131218
0.00789377
0.00139221
0.000960001
0.00117533
0.00135621
0.00773522
0.00138495
0.000966479
0.00120741
0.00139371
0.00757937
0.00137361
0.000975304
0.00123373
0.00142015
0.0074596
0.00136181
0.000984294
0.00125294
0.00143437
0.00739425
0.00135245
0.00099264
0.00126475
0.0014377
0.00738967
0.00134749
0.00100009
0.00127013
0.00143517
0.00744309
0.00134772
0.00100593
0.00127265
0.00143323
0.00754526
0.001353
0.00101034
0.00127756
0.00143911
0.00768196
0.00136256
0.00101443
0.00129086
0.00146064
0.00783477
0.00137557
0.00102159
0.00132058
0.00150449
0.00798041
0.00139143
0.00103778
0.00137841
0.00157442
0.0080883
0.0014097
0.00106978
0.00146951
0.00167286
0.00811865
0.00143066
0.00113145
0.0015817
0.0017914
0.00801527
0.001454
0.00121984
0.00169674
0.00190494
0.00768733
0.00147926
0.00131005
0.00177362
0.00196826
0.00697832
0.00154202
0.00135538
0.00175849
0.00193129
0.00583501
0.00160345
0.00134218
0.00162833
0.00177287
0.0043017
0.00160505
0.00133294
0.00148189
0.00157228
0.00266588
0.00149656
0.00132999
0.00142999
0.0015009
0.00152066
0.00133064
0.00134708
0.00146744
0.0015577
0.000829703
0.00180046
0.00226776
0.00268829
0.00316535
0.00012302
0.000269777
0.000521185
0.00120606
0.000305725
0.000360815
0.000625914
0.00081556
0.000439291
0.000503026
0.000699316
0.000808111
0.0006061
0.000632997
0.000788023
0.000849982
0.000812801
0.000754283
0.000874075
0.000903886
0.00107879
0.000871587
0.000958571
0.000970365
0.00141332
0.000983369
0.00103504
0.00103746
0.00105545
0.00182846
0.00108795
0.00110309
0.00110335
0.00113622
0.00233632
0.0011814
0.00115698
0.0011614
0.00122243
0.00294127
0.00125876
0.0011914
0.00120561
0.00131072
0.0036477
0.00131825
0.00120091
0.00122326
0.00137778
0.00444745
0.00136021
0.00118832
0.00121604
0.0013946
0.00531805
0.00139189
0.00116875
0.00120229
0.00137139
0.0062203
0.00141998
0.0011519
0.00119269
0.00134497
0.00709164
0.00144286
0.00114351
0.00119517
0.00133433
0.00784075
0.00147168
0.0011434
0.00121164
0.00134528
0.00841124
0.00148907
0.00114947
0.00124215
0.00137867
0.00878373
0.00148606
0.00115901
0.0012845
0.00142965
0.0089681
0.00145825
0.00117041
0.00133592
0.00149129
0.00897576
0.00142513
0.00118396
0.00139247
0.0015543
0.00886294
0.00139347
0.00119965
0.00144908
0.00160912
0.00869992
0.00136427
0.00121659
0.00150043
0.00164869
0.00854381
0.00134083
0.00123175
0.00154222
0.00167178
0.0084321
0.00132502
0.00124375
0.00157256
0.00168338
0.00838331
0.00131734
0.00125301
0.00159127
0.00168898
0.00840141
0.00131718
0.00125955
0.00160459
0.00169477
0.00847972
0.00132352
0.00126728
0.00162089
0.00170891
0.0086049
0.00133545
0.00128215
0.00165039
0.00174031
0.00876005
0.00135265
0.00131538
0.00170264
0.00179886
0.00892666
0.00137544
0.00138234
0.0017892
0.0018944
0.00908549
0.0014048
0.00149927
0.00192493
0.00203588
0.00921891
0.00144576
0.00168048
0.00211798
0.00222232
0.00930988
0.00150789
0.00192569
0.002359
0.0024361
0.00932607
0.00159593
0.00220291
0.00260414
0.00263232
0.0091601
0.00173021
0.00243161
0.00276889
0.0027384
0.00866839
0.00188838
0.00249324
0.00275162
0.00267975
0.00770184
0.0019983
0.00228572
0.00248191
0.00241323
0.00616722
0.00199001
0.00188816
0.00199545
0.00198046
0.0042641
0.00182923
0.00161502
0.0016519
0.0016508
0.00256625
0.00159026
0.00152608
0.00158301
0.00161809
0.00132714
0.00247973
0.00301661
0.00351745
0.004061
0.000131779
0.000307534
0.000911281
0.00184831
0.000335063
0.000482612
0.000793887
0.000996609
0.000484165
0.00064153
0.000834744
0.000934809
0.000681795
0.000788291
0.00092648
0.000970612
0.000928219
0.000927115
0.00102291
0.00102655
0.00124577
0.00106214
0.00111816
0.0011002
0.00163772
0.00118898
0.00120157
0.00117538
0.0021104
0.00130514
0.00127401
0.00125067
0.00130466
0.00267006
0.00140474
0.00132783
0.00131488
0.00141259
0.00331655
0.00148252
0.00135878
0.00136117
0.00151711
0.00406149
0.00153818
0.00136302
0.00137865
0.00159481
0.00489509
0.00157674
0.00135071
0.0013762
0.00160421
0.0057946
0.00161124
0.00134611
0.00137868
0.00157532
0.00668557
0.00167764
0.00135743
0.00139605
0.00155734
0.00750595
0.00175631
0.00138532
0.00143413
0.00156983
0.00819374
0.00182701
0.00142391
0.00148967
0.00161101
0.00870556
0.00187146
0.00146757
0.00155941
0.00167596
0.00902935
0.00187357
0.00151157
0.00163767
0.00175359
0.00918423
0.00182883
0.00155438
0.00171916
0.00183352
0.00920848
0.00175036
0.0015962
0.00179757
0.00190501
0.00915194
0.00165299
0.00163741
0.00186673
0.00196022
0.00904076
0.00157069
0.00167826
0.00192229
0.00199644
0.00891733
0.00151959
0.00171719
0.00196414
0.00201811
0.00883486
0.00149016
0.00175222
0.00199661
0.00203434
0.00881534
0.00147841
0.00178221
0.00202547
0.00205219
0.00885873
0.00147986
0.00181349
0.0020582
0.0020799
0.00895177
0.0014918
0.00185667
0.00210581
0.0021274
0.00907584
0.00151514
0.00192535
0.0021823
0.00220569
0.00921198
0.00155518
0.00203669
0.00230525
0.00232706
0.00934398
0.00161976
0.00221465
0.0024938
0.00250306
0.0094641
0.00172572
0.00248462
0.002763
0.0027403
0.00958131
0.00190029
0.0028628
0.0031108
0.00302801
0.00972841
0.00223425
0.00333113
0.00350496
0.00333198
0.00991339
0.00274128
0.00381377
0.00386891
0.00358517
0.0100138
0.0033515
0.00417631
0.00408734
0.00369882
0.00983788
0.00379055
0.00425389
0.00404647
0.00359818
0.00917613
0.00372981
0.00390669
0.00366731
0.00324323
0.00785683
0.00322212
0.00305531
0.00290952
0.00262094
0.00598238
0.00263319
0.00225428
0.00213121
0.00199102
0.00397788
0.00205278
0.00183704
0.00180058
0.00177313
0.00204494
0.00341708
0.0039768
0.00458508
0.00523033
0.000145184
0.000435404
0.00142291
0.002624
0.000364956
0.000620466
0.000970631
0.00118835
0.000540256
0.000784982
0.000974903
0.00107041
0.000795219
0.000951167
0.00107415
0.00110426
0.00111036
0.00111454
0.00118285
0.00116586
0.0014919
0.00127204
0.00129047
0.00124793
0.00194456
0.00141568
0.00138257
0.00133375
0.00247263
0.00154304
0.00146098
0.00142125
0.00307991
0.00164698
0.00151625
0.00149438
0.00163809
0.00375811
0.00172384
0.00154781
0.00154737
0.00175875
0.00450093
0.00177534
0.00155508
0.00157603
0.00185828
0.00531055
0.00181765
0.00155924
0.00159493
0.00186975
0.00613694
0.00189328
0.00158914
0.00163133
0.00184639
0.00692117
0.00199012
0.00164324
0.00169029
0.00184964
0.00760342
0.00208764
0.00171706
0.00177457
0.00189524
0.00813891
0.00216516
0.00179962
0.00187416
0.00197082
0.00850727
0.00220803
0.00188415
0.00198285
0.00206489
0.00871713
0.00221106
0.00196555
0.00209186
0.00216177
0.00880041
0.00217814
0.00204248
0.00219491
0.00225157
0.00880068
0.00211354
0.00211474
0.00228581
0.00232646
0.00876252
0.0020274
0.00218202
0.00236075
0.00238375
0.00871888
0.0019353
0.00224383
0.00241976
0.00242619
0.0086757
0.00187537
0.00230152
0.00246795
0.00246156
0.0086556
0.00185026
0.00235827
0.0025138
0.0024995
0.00868036
0.00184824
0.00241889
0.0025661
0.00254694
0.00874793
0.00186667
0.00249217
0.00263666
0.00261379
0.00884293
0.00190924
0.00259385
0.0027405
0.00271148
0.00894665
0.00198625
0.00274701
0.00289588
0.002853
0.00904492
0.00211662
0.00298067
0.00312342
0.00305118
0.00913866
0.00233884
0.00332534
0.00344179
0.00331559
0.00925895
0.00275391
0.00380188
0.00385673
0.00364329
0.00944476
0.00342227
0.00440249
0.00434306
0.00400732
0.00969689
0.00427164
0.00506179
0.00483947
0.00435589
0.00994279
0.00521705
0.00566714
0.00524889
0.00461078
0.0100926
0.00602335
0.00606805
0.00545834
0.00468957
0.0100335
0.00642486
0.00611615
0.00537676
0.00453751
0.00962948
0.00619072
0.00567917
0.00493594
0.00412811
0.00870279
0.00504681
0.00462226
0.00405697
0.00341264
0.0072584
0.00366298
0.00305325
0.00271753
0.002406
0.00546326
0.00263307
0.00220254
0.00205835
0.00196451
0.00291662
0.0046386
0.00520005
0.00596132
0.00676722
0.000184072
0.000765293
0.00203392
0.00347735
0.000436668
0.000786352
0.00115334
0.00138676
0.000672986
0.000935386
0.00112241
0.00121518
0.000990718
0.00112464
0.00123168
0.00124975
0.00136329
0.00131767
0.00135473
0.0013216
0.00180026
0.00150151
0.00147523
0.0014143
0.00230138
0.00166381
0.00157818
0.00151251
0.00286552
0.00180335
0.00166602
0.00161577
0.0034908
0.0019124
0.00172794
0.00170361
0.00416348
0.00199056
0.0017698
0.00177337
0.00203649
0.00488206
0.00204288
0.00179464
0.00183024
0.00217472
0.00561543
0.00211138
0.00183513
0.00188928
0.00220302
0.00631561
0.00221082
0.00191607
0.00197575
0.00219656
0.00693103
0.00232402
0.00202374
0.00208666
0.00223212
0.00741615
0.00242982
0.00215041
0.00222214
0.00231668
0.00775069
0.00251182
0.00228133
0.00236578
0.00242848
0.00794215
0.00256313
0.00241063
0.00250975
0.00254865
0.00802073
0.00258581
0.00253273
0.00264487
0.00266239
0.00802755
0.00258792
0.00264516
0.00276594
0.00276408
0.00800398
0.00257972
0.00274567
0.00286893
0.00285043
0.00798421
0.00257069
0.00283473
0.00295437
0.00292338
0.00798905
0.00256532
0.00291506
0.00302732
0.00298871
0.00802182
0.0025592
0.0029927
0.00309717
0.00305471
0.00808079
0.00256502
0.00307621
0.00317496
0.00313006
0.00815584
0.00260283
0.00317834
0.00327194
0.00322261
0.00824615
0.00267849
0.00331487
0.00340363
0.00334365
0.00834399
0.00281327
0.00350809
0.00358821
0.00350556
0.0084437
0.00304427
0.00378668
0.00384598
0.00372138
0.00854885
0.00342369
0.00418137
0.00419506
0.00400058
0.0086685
0.00400253
0.00471376
0.00464478
0.00434484
0.00879339
0.00476448
0.00537745
0.00518071
0.00473655
0.00890548
0.00570563
0.00612939
0.00575157
0.00513488
0.00897706
0.00674222
0.00689336
0.00628816
0.0054809
0.0089736
0.00774641
0.0075678
0.00670278
0.00570215
0.0089155
0.00855516
0.0080234
0.00690332
0.00573493
0.00883235
0.00895222
0.00811293
0.00681524
0.00554544
0.00871787
0.00862596
0.00767142
0.00637309
0.00512269
0.00832388
0.00733315
0.0066308
0.00557012
0.00445799
0.00759452
0.00475274
0.00408208
0.00348145
0.00292894
0.00660238
0.00326369
0.00264749
0.00238216
0.00220425
0.00376979
0.00608473
0.00670633
0.00769912
0.00875395
0.00027449
0.00120371
0.00271695
0.00434858
0.000631925
0.000964281
0.00134259
0.00158968
0.00091298
0.00109433
0.00128135
0.00137111
0.0012768
0.00131261
0.00140287
0.0014091
0.00169123
0.00153937
0.00153984
0.00149484
0.00216493
0.00175251
0.00167482
0.00160436
0.00269349
0.00193643
0.00179262
0.0017197
0.00326981
0.00209188
0.00189628
0.00184053
0.00388529
0.0022109
0.00197483
0.00195327
0.00451826
0.0022983
0.0020422
0.00205636
0.00516461
0.00236511
0.002104
0.00215849
0.00255926
0.0057816
0.00246115
0.00220118
0.00227831
0.00262039
0.00630671
0.00258421
0.00235039
0.00242832
0.00263988
0.00670649
0.00271497
0.00252165
0.00259788
0.00271831
0.0069741
0.00283841
0.00270761
0.00278744
0.00284484
0.00710803
0.00294475
0.00289172
0.00297477
0.00298912
0.00714089
0.00303573
0.00306903
0.00315297
0.00313698
0.00711606
0.00311685
0.00323497
0.00331616
0.00327595
0.00707502
0.00319281
0.00338668
0.0034618
0.00340258
0.00704823
0.00326606
0.00352139
0.0035892
0.00351687
0.00705263
0.00333879
0.00364116
0.0037027
0.00362321
0.00709248
0.00341388
0.00375111
0.0038102
0.00372851
0.00716275
0.00349695
0.00386259
0.00392299
0.00384101
0.00725478
0.00359725
0.00399137
0.0040544
0.0039694
0.00735727
0.00373009
0.00415602
0.00421896
0.00412286
0.00746188
0.00391714
0.00437991
0.0044346
0.00431306
0.00756145
0.00418928
0.00469045