/*--------------------------------*- C++ -*----------------------------------*\
| =========                 |                                                 |
| \\      /  F ield         | OpenFOAM: The Open Source CFD Toolbox           |
|  \\    /   O peration     | Version:  2.3.1                                 |
|   \\  /    A nd           | Web:      www.OpenFOAM.org                      |
|    \\/     M anipulation  |                                                 |
\*---------------------------------------------------------------------------*/
FoamFile
{
    version     2.0;
    format      ascii;
    class       volScalarField;
    location    "600";
    object      k;
}
// * * * * * * * * * * * * * * * * * * * * * * * * * * * * * * * * * * * * * //

dimensions      [0 2 -2 0 0 0 0];

internalField   nonuniform List<scalar> 
6852
(
0.00881477
0.0113265
0.0190582
0.0287313
0.0372295
0.0114058
0.0168291
0.0264987
0.0347331
0.0398289
0.0160557
0.0230161
0.0329641
0.0394773
0.0417332
0.0198624
0.0266082
0.0357573
0.0399439
0.0389679
0.0239046
0.0296196
0.0371755
0.03883
0.0351688
0.0289446
0.0341458
0.0415663
0.0428845
0.0388086
0.0348029
0.0395789
0.0473034
0.0487458
0.0446077
0.0412412
0.0455947
0.0538772
0.0557416
0.0517471
0.0479934
0.0519668
0.061043
0.0636519
0.0600995
0.0546927
0.0583792
0.068446
0.0721254
0.0693982
0.0608935
0.0644482
0.0756504
0.080692
0.0791724
0.0661044
0.0697116
0.0821058
0.0888004
0.0892114
0.0698879
0.0737269
0.087225
0.0956615
0.0985402
0.0719634
0.0761691
0.090528
0.100482
0.105888
0.07226
0.0768937
0.0917671
0.102754
0.110333
0.0709115
0.075951
0.0909686
0.102367
0.11145
0.068201
0.0735511
0.0883921
0.0995942
0.109393
0.0644876
0.0699972
0.0844368
0.0949637
0.104755
0.0601378
0.0656194
0.0795394
0.0890968
0.0983359
0.0555296
0.0606712
0.0740915
0.0825733
0.0909287
0.0508643
0.0554148
0.0683912
0.0758511
0.0831845
0.0462514
0.0502556
0.0624756
0.06923
0.0755587
0.041788
0.0452496
0.0566292
0.0628006
0.0683133
0.0374113
0.0404245
0.0509516
0.0567086
0.0614823
0.0330714
0.0357769
0.0454447
0.0509672
0.0552426
0.0287552
0.0312819
0.0400953
0.0454931
0.0495004
0.0244717
0.0269134
0.0348863
0.0402056
0.0441277
0.0202525
0.02266
0.0298074
0.0350405
0.0389992
0.0161671
0.0185992
0.0248855
0.0299678
0.0340147
0.012349
0.0148592
0.0202132
0.0250237
0.0291284
0.00909987
0.0116128
0.0159604
0.0203342
0.0243811
0.00717059
0.00917919
0.0125231
0.0161997
0.0199601
0.00630194
0.00770997
0.0102455
0.0130225
0.0162151
0.00595368
0.00692509
0.00901126
0.011161
0.0136137
0.0060264
0.0066122
0.00832152
0.0102169
0.0121934
0.00613288
0.00633818
0.00770752
0.00938832
0.0112056
0.00604552
0.00593838
0.00705557
0.0085256
0.0102623
0.00572469
0.00543227
0.00644109
0.00769099
0.00931204
0.0052631
0.00503487
0.00605578
0.00712646
0.00860119
0.00487256
0.00500542
0.00605454
0.00704822
0.00831521
0.00496799
0.005906
0.00721091
0.00809273
0.00913239
0.00796839
0.00918157
0.0163858
0.0249684
0.0321515
0.0100273
0.0134925
0.0169934
0.0192033
0.0195558
0.0125009
0.0145274
0.0163489
0.0163444
0.0148452
0.0144574
0.0147736
0.0149338
0.0132849
0.0112427
0.0168724
0.0149679
0.0137865
0.0114706
0.0100339
0.0200429
0.0159054
0.0140919
0.011767
0.0108612
0.0239188
0.0174242
0.0153085
0.013034
0.0122868
0.0283796
0.0193129
0.0170164
0.0147036
0.0138662
0.0332959
0.0214312
0.0190302
0.0166108
0.01549
0.0384904
0.0236585
0.0212365
0.0186945
0.0171532
0.0437262
0.0258789
0.0235558
0.0209886
0.0191016
0.0487092
0.0279564
0.0258675
0.0234269
0.021218
0.0531186
0.0297452
0.0279984
0.0258534
0.0234421
0.0566754
0.0311212
0.0297742
0.0280966
0.0257892
0.0591942
0.0320061
0.0310502
0.0299423
0.0279887
0.0606042
0.0323803
0.0317463
0.0312199
0.0297625
0.0609394
0.0322799
0.0318594
0.031851
0.0309226
0.0603092
0.0317815
0.0314526
0.0318552
0.0314071
0.0588613
0.0309844
0.0306304
0.0313254
0.0312686
0.0567558
0.0299873
0.029512
0.0303917
0.0306297
0.0541264
0.0288776
0.0282101
0.0291887
0.0296378
0.0510732
0.0277352
0.0268102
0.027834
0.0284317
0.0475984
0.026617
0.0253897
0.0264137
0.0271241
0.0437244
0.0255956
0.0240095
0.0249952
0.0257906
0.0395861
0.0246763
0.0227106
0.0236255
0.0244877
0.0353351
0.0238085
0.0215283
0.0223318
0.023248
0.031056
0.0229281
0.0205084
0.0211286
0.022084
0.0268195
0.0220138
0.0196607
0.0200401
0.02099
0.0226798
0.0210385
0.0189703
0.019102
0.0199892
0.0186423
0.0199639
0.0184149
0.0183314
0.0190932
0.0147502
0.018762
0.017972
0.0177448
0.018324
0.0110934
0.0174141
0.0175733
0.0173515
0.0177179
0.00786727
0.0158668
0.0171076
0.0171485
0.0173272
0.00568991
0.0142699
0.0164836
0.0169895
0.0171742
0.00531209
0.0127789
0.0156384
0.0167151
0.0171432
0.00543045
0.0114127
0.01454
0.0161495
0.0169697
0.00541888
0.00976212
0.0131229
0.0150714
0.0163084
0.00511286
0.00766196
0.0113355
0.0134998
0.0149795
0.00472208
0.00596466
0.00946181
0.0116621
0.0132206
0.00451445
0.00507443
0.00741481
0.00999492
0.0114125
0.00515486
0.00593237
0.00740854
0.00853333
0.00992854
0.0079468
0.00915864
0.0164716
0.0249051
0.0320984
0.00976886
0.0115453
0.013917
0.0153979
0.0154351
0.0115616
0.0114123
0.0119385
0.0115425
0.0105177
0.0133346
0.0110688
0.0105379
0.00956469
0.0089253
0.0156877
0.010881
0.00966637
0.00859772
0.0083017
0.0187344
0.0110913
0.00943672
0.00840919
0.00833211
0.0224509
0.0116494
0.00964999
0.00866067
0.00875785
0.0267649
0.0124719
0.0101534
0.00917626
0.00940798
0.0315962
0.0134868
0.0108448
0.00983418
0.0101324
0.0368308
0.0146316
0.0116534
0.0105438
0.010792
0.0422904
0.0158482
0.0125316
0.0112529
0.0112884
0.0477207
0.0170754
0.0134439
0.0119761
0.0117057
0.0528097
0.0182446
0.0143431
0.0127227
0.0121543
0.0572543
0.0192896
0.0151702
0.013472
0.0126468
0.0608136
0.0201562
0.015864
0.0141767
0.0131869
0.0633414
0.0208116
0.0163756
0.0147754
0.0137206
0.0647909
0.0212468
0.0166787
0.0152151
0.0141786
0.0651982
0.0214743
0.0167729
0.0154675
0.0145074
0.0646555
0.0215224
0.016679
0.0155309
0.0146799
0.0632837
0.0214271
0.016431
0.0154252
0.0146965
0.0612093
0.0212261
0.0160682
0.0151824
0.014577
0.0585377
0.0209565
0.0156283
0.0148383
0.0143515
0.0552924
0.0207084
0.0151464
0.0144266
0.0140519
0.0516297
0.0204812
0.0146528
0.0139762
0.0137069
0.0476816
0.0202693
0.0141729
0.0135105
0.0133399
0.0435384
0.020007
0.013778
0.0130488
0.0129689
0.0392577
0.019689
0.01347
0.0126147
0.0126063
0.0348556
0.0193072
0.0132494
0.0122291
0.0122622
0.0303414
0.0188488
0.0131142
0.011911
0.0119469
0.0257759
0.0182981
0.0130561
0.0116773
0.0116719
0.0212326
0.0176385
0.01306
0.0115407
0.0114507
0.0167931
0.0168561
0.0131042
0.0115074
0.0112988
0.0125568
0.0159399
0.0131562
0.0115736
0.0112298
0.00867602
0.0148875
0.0131787
0.0117217
0.0112557
0.00544702
0.013747
0.0131495
0.0119217
0.0113775
0.00480832
0.0128375
0.0130805
0.0121508
0.0115786
0.00515873
0.0119249
0.0128669
0.0123582
0.0118458
0.00519382
0.0105436
0.0122624
0.0123349
0.0121094
0.00496113
0.00837814
0.0111316
0.0119488
0.0122437
0.00481302
0.00599538
0.00952573
0.0113143
0.012217
0.00560477
0.00658845
0.00824748
0.00953836
0.0109144
0.00747315
0.00859328
0.0155506
0.0236461
0.0309059
0.00929807
0.0102706
0.0129413
0.0151348
0.0160681
0.0111113
0.0101708
0.0111891
0.0117249
0.0116768
0.0132097
0.00983008
0.0100266
0.010145
0.0103406
0.0160375
0.0095883
0.00926531
0.00935951
0.0098202
0.0196853
0.00959871
0.00884332
0.00904479
0.00972819
0.0241113
0.00987201
0.00866665
0.00897297
0.00984018
0.029103
0.010454
0.00867482
0.00902848
0.0100929
0.0345045
0.0113287
0.00882583
0.00913443
0.0103735
0.0401902
0.0124267
0.00909839
0.00924507
0.0105471
0.0459492
0.0136738
0.00949817
0.0093508
0.010534
0.0515027
0.0150118
0.00999664
0.00949336
0.0103646
0.0565429
0.0163581
0.0105453
0.00972076
0.0101943
0.060792
0.0176288
0.0110964
0.00999995
0.0101763
0.0640454
0.0187536
0.0116065
0.010292
0.0102634
0.066193
0.0196834
0.0120406
0.0105602
0.0103965
0.0672199
0.0203946
0.0123766
0.0107772
0.0105271
0.0671891
0.0208862
0.0126066
0.0109265
0.0106239
0.0662148
0.0211749
0.0127348
0.0110025
0.0106704
0.0644364
0.0212881
0.0127743
0.0110083
0.0106618
0.0619966
0.0212581
0.0127432
0.0109531
0.0106014
0.059024
0.0211163
0.0126615
0.0108501
0.0104977
0.0556254
0.0208963
0.0125493
0.0107136
0.0103614
0.0518987
0.0206223
0.0124253
0.0105577
0.0102037
0.0479226
0.02031
0.0123063
0.0103957
0.0100348
0.0437542
0.0199625
0.0122104
0.0102405
0.00986465
0.0394344
0.0195779
0.0121496
0.0101048
0.00970206
0.034995
0.0191493
0.0121307
0.0100013
0.00955567
0.0304688
0.0186644
0.0121555
0.00994214
0.00943465
0.025903
0.0181068
0.0122206
0.00993816
0.00934948
0.0213676
0.0174569
0.0123155
0.00999716
0.00931069
0.0169471
0.0166938
0.0124213
0.0101215
0.00932885
0.0127397
0.0157982
0.0125084
0.0103031
0.0094078
0.00890822
0.0147649
0.0125393
0.0105224
0.009547
0.00565154
0.0136258
0.0124791
0.0107497
0.00974067
0.00450921
0.0127717
0.0123652
0.0109651
0.00997956
0.00503385
0.0120783
0.0122035
0.0111487
0.0102566
0.0052082
0.011045
0.011862
0.0112536
0.0105733
0.00507581
0.00897776
0.0111557
0.0112772
0.0110729
0.00493327
0.00658563
0.00992377
0.0112669
0.0118054
0.00572557
0.00681888
0.00849824
0.00966071
0.0107642
0.00628769
0.00676183
0.0124659
0.0196033
0.0266339
0.00800348
0.00884415
0.011993
0.015308
0.017588
0.0101823
0.00930444
0.0113026
0.013346
0.0146049
0.012857
0.00930969
0.010584
0.012241
0.0135944
0.01622
0.0094389
0.0099276
0.0115103
0.0131664
0.0202323
0.00996998
0.00951981
0.0109274
0.0130785
0.0248657
0.0108875
0.00944064
0.0105328
0.0129626
0.0299911
0.0121458
0.00965913
0.0103656
0.012632
0.0354331
0.0136795
0.0101279
0.0104055
0.0124362
0.0409864
0.01541
0.0107968
0.0106263
0.0123426
0.0463977
0.017244
0.0116132
0.0109947
0.0123616
0.051376
0.0190797
0.0125165
0.0114776
0.0124991
0.0556357
0.0208006
0.0134322
0.0120237
0.0127197
0.058953
0.0223074
0.0142961
0.0125821
0.0129928
0.0611944
0.0235329
0.0150605
0.0131089
0.0132841
0.0623232
0.0244453
0.0156967
0.0135743
0.0135628
0.0623888
0.0250466
0.0161957
0.0139636
0.0138096
0.0615031
0.0253639
0.0165635
0.0142744
0.0140157
0.0598121
0.0254396
0.0168159
0.0145124
0.0141797
0.0574716
0.0253217
0.0169736
0.0146876
0.0143041
0.0546282
0.0250568
0.017058
0.0148114
0.0143934
0.0514059
0.024685
0.017089
0.014895
0.0144524
0.0479017
0.0242375
0.0170833
0.0149479
0.0144855
0.0441886
0.0237364
0.0170535
0.0149781
0.0144962
0.0403191
0.0231933
0.0170086
0.0149918
0.0144878
0.0363296
0.02261
0.0169545
0.0149944
0.0144634
0.0322465
0.0219796
0.0168934
0.0149911
0.0144275
0.028093
0.0212882
0.0168239
0.014987
0.014386
0.0238975
0.0205161
0.0167404
0.0149868
0.0143467
0.0197016
0.0196408
0.0166324
0.0149945
0.0143199
0.0155763
0.0186374
0.0164821
0.0150101
0.0143158
0.011638
0.0174881
0.0162635
0.0150268
0.0143446
0.00811538
0.0161847
0.0159396
0.0150225
0.0144012
0.00518404
0.0147969
0.0154787
0.0149619
0.0144667
0.00474212
0.0136102
0.0149053
0.0148147
0.0145163
0.00513256
0.012663
0.0142833
0.014573
0.0145244
0.00541939
0.0116766
0.0136018
0.0142141
0.0144529
0.00536741
0.0100932
0.012718
0.0136669
0.0142277
0.00503934
0.00717369
0.0114903
0.0129115
0.0138275
0.00482973
0.005972
0.00923659
0.0117688
0.0130483
0.00553981
0.00651967
0.00800775
0.00908667
0.0100981
0.00552716
0.00606219
0.00981418
0.0160619
0.0230746
0.00712996
0.00701698
0.010258
0.015494
0.0211952
0.010006
0.00899698
0.0118424
0.0172586
0.0241464
0.0135786
0.0114255
0.0140621
0.0195686
0.0274842
0.0178756
0.0144155
0.0168266
0.0225624
0.0310973
0.0227843
0.0179804
0.0201303
0.0260763
0.0347778
0.0281611
0.0220235
0.0239478
0.0300934
0.0386601
0.0338231
0.0263884
0.0281797
0.0345727
0.0428907
0.0395549
0.030894
0.0326694
0.0394092
0.0476984
0.0451092
0.0353453
0.0372078
0.044395
0.0530002
0.0502088
0.0395346
0.0415475
0.0492096
0.0584494
0.0545671
0.0432464
0.0454166
0.0534003
0.0632375
0.0579471
0.0462971
0.048592
0.0566277
0.0666161
0.0602205
0.0486037
0.0510093
0.0588679
0.0685947
0.0613657
0.0501706
0.0527144
0.0602418
0.069383
0.0614487
0.0510591
0.0538129
0.0609395
0.0693024
0.0605959
0.0513597
0.0544293
0.0611624
0.0686946
0.0589637
0.0511668
0.0546731
0.0610719
0.0678196
0.0567122
0.0505623
0.0546216
0.0607723
0.0668354
0.0539871
0.0496076
0.0543174
0.0603134
0.0658156
0.0509084
0.0483417
0.0537707
0.0597021
0.0647733
0.0475655
0.0467821
0.052966
0.0589135
0.0636829
0.0440179
0.0449288
0.0518687
0.0579026
0.0624967
0.0403016
0.0427706
0.0504322
0.0566131
0.061156
0.0364365
0.0402907
0.0486062
0.0549848
0.0595967
0.032433
0.0374733
0.0463441
0.0529605
0.0577557
0.0283008
0.0343114
0.043612
0.0504929
0.0555753
0.0240565
0.0308146
0.0403942
0.0475474
0.0530023
0.0197348
0.0270178
0.0367024
0.0441074
0.0499898
0.0154031
0.0229894
0.0325833
0.0401779
0.0464924
0.0112294
0.0188503
0.0281337
0.0358005
0.0424817
0.00770627
0.0148216
0.0235204
0.0310694
0.0379631
0.00612692
0.0112919
0.0190047
0.0261508
0.032982
0.00539975
0.00841257
0.014866
0.0213038
0.0277458
0.00534348
0.00616347
0.0113351
0.0168143
0.0225383
0.00556226
0.00523955
0.00870021
0.0129576
0.0176562
0.00570804
0.0052848
0.00671755
0.00980569
0.0133441
0.00562507
0.00518781
0.00528194
0.00738713
0.00981916
0.00539352
0.00514728
0.00568138
0.00599929
0.0076763
0.00523826
0.0055331
0.00651164
0.00706371
0.00765746
0.00548295
0.006684
0.00800879
0.0085847
0.00896505
0.000881997
0.00103592
0.00129995
0.00157248
0.00101942
0.00121619
0.00162778
0.00209527
0.0012638
0.00155926
0.00213244
0.00263276
0.00152077
0.00189594
0.00253231
0.00294161
0.00310964
0.00182172
0.00221569
0.00285639
0.00319142
0.00316677
0.00221093
0.00257063
0.00320614
0.00349503
0.00337785
0.00270476
0.00299327
0.00361993
0.00388282
0.00372615
0.00330955
0.00349124
0.00409628
0.00433619
0.00416269
0.00403077
0.00407528
0.00464234
0.00486034
0.00469311
0.00486056
0.00474775
0.00525552
0.00544909
0.00531318
0.0057789
0.00551238
0.00594044
0.00610653
0.00604409
0.00673737
0.00634855
0.00667191
0.00678273
0.00678416
0.00767065
0.0072145
0.00743382
0.00744392
0.00742145
0.00851356
0.00805435
0.00821894
0.00809984
0.0079904
0.00921313
0.00882463
0.00900729
0.00875113
0.00851481
0.00973531
0.00948265
0.0097628
0.00937843
0.00899724
0.0100688
0.00999431
0.0104362
0.00994536
0.00942618
0.0102243
0.010339
0.0109626
0.0104146
0.00977708
0.0102311
0.0105157
0.0112929
0.0107557
0.0100279
0.0101315
0.0105483
0.0114497
0.0109576
0.0101706
0.00997205
0.0104763
0.0114691
0.0110322
0.010214
0.0097949
0.0103437
0.0113953
0.0110092
0.0101729
0.00963233
0.0101907
0.0112735
0.0109295
0.0100889
0.00950501
0.0100487
0.0111432
0.0108337
0.0100016
0.00942297
0.00993847
0.011035
0.0107563
0.00994123
0.0093871
0.00987104
0.0109693
0.0107226
0.00993172
0.00939046
0.0098479
0.0109561
0.0107467
0.00998756
0.00941925
0.0098622
0.0109951
0.0108325
0.0101151
0.00945336
0.00989948
0.0110771
0.0109745
0.010313
0.00946637
0.00993787
0.0111833
0.0111561
0.0105688
0.00942523
0.00994802
0.0112856
0.0113504
0.0108576
0.00928969
0.00989264
0.0113459
0.0115208
0.0111358
0.00901231
0.00972738
0.0113174
0.0116236
0.0113526
0.00853746
0.00940004
0.0111457
0.0116142
0.0114847
0.00780258
0.00884972
0.0107634
0.0114514
0.0115068
0.0067465
0.00800752
0.0100802
0.0110515
0.0113422
0.00535539
0.00684266
0.00900868
0.0101636
0.0108088
0.00375427
0.00535372
0.00744862
0.00866622
0.00955133
0.00242497
0.00363279
0.00548466
0.00658551
0.00752402
0.00192078
0.00208838
0.00322151
0.00407917
0.00495334
0.00202508
0.00223691
0.00257927
0.00315155
0.00391755
0.000857429
0.000932283
0.00119685
0.00158397
0.00095928
0.00149652
0.00239254
0.00322207
0.00124738
0.00216242
0.00320159
0.00398936
0.00154279
0.00273357
0.00378537
0.00444486
0.00185168
0.00315726
0.00419679
0.00476115
0.00477622
0.00221841
0.00351188
0.00453125
0.00502147
0.00492451
0.00264609
0.00381436
0.00481272
0.0052562
0.0051014
0.00314212
0.00407467
0.00504981
0.00546405
0.00528596
0.00371431
0.00429661
0.00524343
0.00564712
0.00548168
0.00436204
0.00447588
0.00538625
0.00580186
0.00569574
0.00507881
0.00461033
0.00546669
0.00590445
0.00589725
0.00584035
0.00469446
0.00547743
0.00594873
0.00607258
0.00660814
0.0047475
0.00543459
0.00593251
0.00615427
0.00733725
0.00479551
0.00535749
0.00587296
0.00617226
0.00797992
0.00485132
0.00526281
0.00578836
0.00614706
0.00849398
0.00491466
0.00516302
0.0056969
0.00610273
0.00885293
0.00497745
0.00506601
0.00561132
0.0060608
0.00905232
0.00502964
0.00498458
0.00553879
0.00603513
0.00910967
0.00506277
0.00493032
0.00548258
0.00603302
0.00905892
0.00507201
0.00488647
0.00544277
0.00605602
0.00894174
0.00505811
0.00484713
0.00542285
0.00609366
0.00879876
0.00502687
0.00481346
0.00542043
0.00613636
0.0086629
0.00498696
0.00478864
0.00543097
0.00617677
0.00855653
0.00494735
0.00477534
0.00544998
0.006209
0.00849184
0.00491535
0.0047746
0.00547345
0.00623327
0.0084725
0.00489555
0.00478522
0.00549692
0.00624813
0.00849539
0.00488939
0.00480399
0.00551779
0.00625686
0.00855193
0.00489542
0.00482653
0.00553616
0.00626724
0.00862888
0.00491009
0.00484821
0.00555437
0.00628964
0.0087085
0.00492888
0.00486536
0.00557721
0.00633349
0.00876784
0.00494716
0.00487636
0.00561304
0.00641005
0.00877706
0.00496073
0.00488055
0.00566661
0.006526
0.00869726
0.00496714
0.00487871
0.00574045
0.00664957
0.00847658
0.00496531
0.00487302
0.00582936
0.00673045
0.00804513
0.0049524
0.00487448
0.00587539
0.00672775
0.00731266
0.00491639
0.00488798
0.00582354
0.00660336
0.00620137
0.00482874
0.00488271
0.00570551
0.00635943
0.00473701
0.00461611
0.00479985
0.00552803
0.00609445
0.00318247
0.00420672
0.00456436
0.00522637
0.00575782
0.00227701
0.00360112
0.00414229
0.00473121
0.00520984
0.00250298
0.00283579
0.00339145
0.00389776
0.00446062
0.000914216
0.000953837
0.00118126
0.00207095
0.00104109
0.00185736
0.00301355
0.00378219
0.00134306
0.00267856
0.00387031
0.00455759
0.00166108
0.00330581
0.00445092
0.00500868
0.00201052
0.00378995
0.00487238
0.00532278
0.00242036
0.00419251
0.00521918
0.00559554
0.00549474
0.00289169
0.00452867
0.00550473
0.00583246
0.00569271
0.00343011
0.00480602
0.00573589
0.0060327
0.00588577
0.00404114
0.00502276
0.00590629
0.00619243
0.0060722
0.00472165
0.00516877
0.00600439
0.00630756
0.00626898
0.00546634
0.00523907
0.0060141
0.00634411
0.00642676
0.00625657
0.00522901
0.00593307
0.00630046
0.00651995
0.00706298
0.00516016
0.00579385
0.00620313
0.0065174
0.0078469
0.00505482
0.00562461
0.00608348
0.0064772
0.0085604
0.00492954
0.00545048
0.00596787
0.00643351
0.00915644
0.00480138
0.00528721
0.00587885
0.00641389
0.00960076
0.00468448
0.00514444
0.00583117
0.00643992
0.00987812
0.00458012
0.00502704
0.00583171
0.00652002
0.00999728
0.0044882
0.00493692
0.00588189
0.00665136
0.00998813
0.00440878
0.0048734
0.00597673
0.00681896
0.0098942
0.00434273
0.00483979
0.00609763
0.00699834
0.00976167
0.00429163
0.00483388
0.00622116
0.00716146
0.00963051
0.00425671
0.00484694
0.00633089
0.00728665
0.00952916
0.00423819
0.00487143
0.00641877
0.00736211
0.00947376
0.00423493
0.00490206
0.00647941
0.00738675
0.00947014
0.00424429
0.00493374
0.00651064
0.00737552
0.00951597
0.00426212
0.00495885
0.00652028
0.00734813
0.00960307
0.00428361
0.00497387
0.00652217
0.00732622
0.0097189
0.00430447
0.00498024
0.00653189
0.0073315
0.00984753
0.00432218
0.00498907
0.00657074
0.00737767
0.0099693
0.00433596
0.00501821
0.00666821
0.0074655
0.010059
0.00434626
0.00508247
0.00682191
0.00759293
0.0100841
0.00435509
0.00521785
0.00697592
0.00772828
0.00999823
0.00436579
0.00538526
0.00708728
0.00780937
0.00972339
0.00439808
0.0054821
0.00707213
0.00774632
0.00911561
0.00446774
0.00540924
0.00683841
0.00745984
0.00809022
0.00452838
0.00515842
0.00636026
0.00693313
0.00660192
0.00451511
0.00489986
0.00578618
0.00630188
0.00479854
0.00436877
0.00471386
0.00540275
0.00585977
0.0033003
0.00412448
0.00461589
0.00519747
0.00559227
0.00349824
0.0036936
0.00430805
0.00482572
0.00538126
0.000979448
0.00104116
0.00161428
0.00282628
0.00113168
0.00227254
0.00352126
0.00429814
0.00144156
0.00318298
0.00439998
0.00503046
0.00178693
0.00384631
0.00499572
0.00544744
0.00217322
0.00435711
0.00541829
0.00574153
0.00262481
0.00477911
0.00576036
0.00601538
0.00314283
0.00512924
0.00603559
0.00625185
0.00611748
0.00373166
0.00541339
0.00625257
0.00644927
0.00632973
0.00439424
0.00562402
0.00639735
0.0065956
0.00652646
0.00512349
0.00574702
0.00645647
0.00668729
0.00674159
0.0059142
0.00577853
0.00641394
0.00668426
0.00690537
0.00674979
0.00571847
0.00627892
0.00659429
0.00696835
0.00760403
0.00559859
0.00610484
0.00647061
0.00693201
0.00844118
0.0054469
0.00592454
0.00635323
0.00687688
0.00921183
0.00528578
0.00576077
0.00627549
0.00685086
0.00984945
0.00512996
0.00563021
0.00625358
0.0068824
0.0103215
0.00497371
0.00554273
0.0062976
0.00699055
0.0106241
0.00481978
0.00550271
0.00640817
0.00717193
0.0107725
0.00466965
0.00551262
0.00657972
0.00740851
0.0107788
0.00453944
0.00557238
0.00679739
0.00766722
0.0106887
0.00443485
0.00567486
0.0070368
0.00790829
0.0105577
0.0043686
0.0057923
0.00726779
0.00809685
0.0104315
0.00434064
0.00590637
0.00746406
0.00821723
0.0103408
0.00434431
0.006008
0.00760861
0.00827669
0.0103012
0.00437088
0.00609319
0.00769328
0.0082881
0.0103163
0.00441018
0.00615452
0.00773605
0.00826968
0.0103806
0.00445341
0.00620079
0.0077603
0.00824603
0.0104827
0.00449453
0.00624709
0.00779231
0.00824208
0.0106085
0.0045314
0.00632416
0.0078505
0.00828136
0.0107428
0.00456459
0.00646672
0.00795541
0.00838161
0.0108699
0.0045969
0.00669694
0.00813232
0.00855274
0.0109762
0.00465851
0.00700609
0.00838084
0.00877654
0.0110482
0.00477605
0.0073662
0.00866247
0.00900238
0.0110608
0.00495144
0.00770586
0.00888566
0.00913872
0.0109289
0.00516771
0.00788376
0.00891077
0.00906594
0.0105338
0.00534368
0.0077248
0.00859942
0.0086884
0.00973511
0.00537707
0.00709964
0.00787602
0.00797488
0.00839433
0.00523148
0.00614389
0.00680744
0.00701899
0.00656332
0.00493727
0.005445
0.00598026
0.00624558
0.0046783
0.00461246
0.00511974
0.00559216
0.0058659
0.00478485
0.00457245
0.00521097
0.00577318
0.00635391
0.00102546
0.00113634
0.00234334
0.0037569
0.00120312
0.00268668
0.00404363
0.00483449
0.00153824
0.00368339
0.00490294
0.00550307
0.00193285
0.00438954
0.0054975
0.00588982
0.00237432
0.00491479
0.0059269
0.0061659
0.00288903
0.00534619
0.00627144
0.00644018
0.0034672
0.00569837
0.00653417
0.0066799
0.004106
0.00597582
0.00673136
0.00687935
0.00681192
0.00480335
0.00616569
0.00684244
0.00701622
0.00703972
0.00555063
0.00625302
0.00685653
0.00708811
0.00729203
0.0063536
0.00623811
0.00676231
0.00705537
0.00747973
0.00719567
0.00612971
0.00658927
0.00694311
0.00752937
0.00805207
0.00597527
0.00640677
0.00682892
0.00747305
0.00885738
0.00581533
0.0062492
0.0067531
0.00741363
0.00956759
0.00566554
0.00614065
0.00674738
0.00741497
0.0101432
0.00552796
0.00608647
0.00681781
0.00750174
0.0105612
0.00539667
0.00609085
0.00696721
0.00768367
0.0108216
0.00526
0.00615545
0.00718511
0.00793628
0.0109453
0.0051136
0.00628116
0.00745452
0.00822428
0.010965
0.00497304
0.00646209
0.00774733
0.00850331
0.0109206
0.00485107
0.00668358
0.00802978
0.00873376
0.0108324
0.0047703
0.00692246
0.00827108
0.00889149
0.010734
0.00473736
0.00715183
0.00845508
0.0089777
0.0106682
0.00474048
0.007349
0.00858314
0.00901331
0.0106528
0.00477751
0.00749657
0.00866507
0.0090179
0.010688
0.00483037
0.00761344
0.00871899
0.00901495
0.0107629
0.00488832
0.00772597
0.00877198
0.00903088
0.0108624
0.00495668
0.00785812
0.00885448
0.00909084
0.0109709
0.00505577
0.00803512
0.0089991
0.0092175
0.0110756
0.00520476
0.00829844
0.0092348
0.00942535
0.0111704
0.00544156
0.00868033
0.00957376
0.00971239
0.0112624
0.00582079
0.00918561
0.00999077
0.0100406
0.0113772
0.00649048
0.00975842
0.0104129
0.0103362
0.0115207
0.00738917
0.0102615
0.0107115
0.0104843
0.0115981
0.00825016
0.0104957
0.0107271
0.0103597
0.0114615
0.00863638
0.0102652
0.0103367
0.00988725
0.0109413
0.00821257
0.00943624
0.00947726
0.00905605
0.00986544
0.00716176
0.00789851
0.00809004
0.00786292
0.00822593
0.00609948
0.00640553
0.00665143
0.00667853
0.00626645
0.00522835
0.00555681
0.00586664
0.00602914
0.00638368
0.00566251
0.00626545
0.00688942
0.0075218
0.00109373
0.00143171
0.00315439
0.00474578
0.00127371
0.00309381
0.00457639
0.00538499
0.00165484
0.0041538
0.00539943
0.00598378
0.00214142
0.00490399
0.00599139
0.00634615
0.00267547
0.00546035
0.00642011
0.00661192
0.00325803
0.00590533
0.00676808
0.0068884
0.00388785
0.00625824
0.0070199
0.00713805
0.00456348
0.0065231
0.00719789
0.00734801
0.00528327
0.00668418
0.00727544
0.00748342
0.00765608
0.00603301
0.00673092
0.00725034
0.00754405
0.00795035
0.00680401
0.00667018
0.00712125
0.00750269
0.00817175
0.00759735
0.0065248
0.00693971
0.00740361
0.00822332
0.00836631
0.00635923
0.00679683
0.00733895
0.00815811
0.00906447
0.00621001
0.00671464
0.00733887
0.00810594
0.00965052
0.0060913
0.00670953
0.00743435
0.00815175
0.0100983
0.00599872
0.00677588
0.00761605
0.00830715
0.0104007
0.00592418
0.00691168
0.00787363
0.0085579
0.0105712
0.00586158
0.00710769
0.00817871
0.00885269
0.0106388
0.00580996
0.00735293
0.00850197
0.00914769
0.0106395
0.00576011
0.00762992
0.00880935
0.00940366
0.0106092
0.0057121
0.00791514
0.0090719
0.00959679
0.0105745
0.00567799
0.00818436
0.00927363
0.00972226
0.01054
0.00568872
0.00841994
0.00941665
0.00979417
0.0105241
0.00573158
0.00861678
0.00951674
0.00983626
0.0105445
0.00579518
0.0087798
0.00959343
0.00986771
0.0105994
0.00588185
0.00892605
0.00967279
0.00991268
0.0106762
0.00600515
0.00908684
0.00978555
0.00999596
0.0107597
0.00619215
0.00930385
0.00996428
0.0101413
0.0108384
0.00648602
0.00962297
0.0102397
0.0103671
0.0109132
0.00695982
0.0100824
0.0106306
0.0106791
0.0110087
0.00776291
0.010689
0.0111247
0.0110557
0.0111553
0.00890147
0.0113949
0.0116589
0.0114362
0.0113528
0.0101221
0.0120704
0.0121248
0.011728
0.0115438
0.0111723
0.0125464
0.0123849
0.0118125
0.0116594
0.0118007
0.0126697
0.0123168
0.0115919
0.0116137
0.0118426
0.0123383
0.0118569
0.0110325
0.0112997
0.0111639
0.0114608
0.0109729
0.0101545
0.0105623
0.00945016
0.0098436
0.00954798
0.00889776
0.00935832
0.00737357
0.00741251
0.00738826
0.00719241
0.0077432
0.00588247
0.00594702
0.00610317
0.00616697
0.00808902
0.00694264
0.00749246
0.00820727
0.00893147
0.00128106
0.00208558
0.00400319
0.00572599
0.0014351
0.00353583
0.00511893
0.00594197
0.0019151
0.00460858
0.0058943
0.00647222
0.00247896
0.00540252
0.00647813
0.00681224
0.0030674
0.00599538
0.00690647
0.00708067
0.00369255
0.00645987
0.00725318
0.00736379
0.00434982
0.00681439
0.00749642
0.00762738
0.00503479
0.00706611
0.00766078
0.00785855
0.00574319
0.0071994
0.00771493
0.00800622
0.00645938
0.00721236
0.00767154
0.00807348
0.00870644
0.00718291
0.00711952
0.00754133
0.00805689
0.00898112
0.00788542
0.00695549
0.00739891
0.00801423
0.00905983
0.008528
0.00680847
0.00734915
0.00803457
0.00899595
0.00907328
0.00670833
0.00738782
0.00813672
0.00896757
0.00949174
0.00666448
0.00752512
0.00835109
0.00908073
0.00977501
0.00666793
0.00773972
0.00864578
0.00931788
0.00993539
0.00671107
0.00801845
0.00899162
0.00962461
0.010001
0.00678697
0.0083352
0.00934702
0.00993712
0.0100071
0.00689129
0.00866395
0.00967996
0.0102215
0.009988
0.00701945
0.00897711
0.00996327
0.0104548
0.00997209
0.00716466
0.00925581
0.0101845
0.0106312
0.00997662
0.00731078
0.00949141
0.0103472
0.0107583
0.0100043
0.00743006
0.00968776
0.0104689
0.0108531
0.0100536
0.00754261
0.0098581
0.010572
0.0109355
0.010116
0.00767079
0.010024
0.01068
0.0110238
0.0101907
0.00784581
0.0102142
0.0108222
0.0111405
0.0102712
0.00811528
0.0104654
0.0110291
0.0113079
0.010353
0.00854135
0.0108176
0.0113291
0.0115454
0.0104387
0.00918794
0.0113046
0.0117403
0.0118618
0.0105358
0.0100738
0.0119309
0.0122584
0.0122478
0.0106367
0.0110508
0.0126439
0.0128362
0.0126601
0.0107269
0.0120375
0.0133543
0.0133846
0.0130258
0.0107843
0.0129323
0.0139683
0.0138092
0.0132537
0.0107815
0.0136395
0.0143945
0.0140124
0.0132443
0.0107349
0.0140697
0.0145366
0.0139129
0.0129325
0.0106679
0.0140941
0.0142924
0.0134663
0.0123144
0.0105754
0.0134763
0.0135408
0.0126517
0.0114443
0.0102542
0.0119436
0.0121919
0.0114728
0.0103358
0.0096458
0.00871292
0.00878348
0.00846629
0.00795449
0.00878583
0.00659816
0.00646527
0.00645557
0.00638412
0.00959855
0.00831993
0.00887756
0.00973369
0.0106037
0.00167153
0.00282116
0.00485601
0.00664664
0.00183567
0.00397538
0.00565681
0.00650018
0.00234663
0.00505981
0.00639165
0.00697061
0.00293542
0.00590031
0.00696468
0.0072915
0.00354116
0.00652897
0.00738543
0.00757168
0.00417547
0.00701398
0.00773082
0.00787721
0.00483062
0.00737245
0.0079728
0.00816411
0.00549766
0.00761579
0.00813508
0.00842013
0.00616793
0.00773059
0.00818685
0.00860112
0.00682114
0.00772746
0.00815899
0.00870494
0.00745728
0.00762242
0.0080666
0.00875166
0.00992458
0.00804013
0.00747277
0.00801782
0.00880537
0.0100555
0.00851999
0.00738661
0.00810727
0.00893477
0.00999875
0.00887647
0.00737912
0.0082951
0.00915275
0.0100198
0.00911112
0.00745678
0.00858567
0.00948539
0.0102184
0.0092275
0.00760259
0.00893806
0.00987175
0.0105212
0.00925611
0.00780573
0.00932442
0.0102699
0.0108657
0.00923493
0.00804902
0.00971005
0.0106428
0.0111972
0.00919977
0.0083121
0.0100675
0.0109687
0.011492
0.00917697
0.00857372
0.0103752
0.0112356
0.0117395
0.00918121
0.00881885
0.0106273
0.0114462
0.0119428
0.00921614
0.00904063
0.0108287
0.0116137
0.0121131
0.00927721
0.00924393
0.0109995
0.0117598
0.0122659
0.00935671
0.00944446
0.011168
0.0119097
0.0124186
0.00944476
0.00966812
0.0113643
0.0120888
0.0125889
0.00953414
0.00994712
0.0116218
0.0123251
0.0127968
0.0096188
0.0103186
0.0119733
0.0126438
0.0130592
0.00969366
0.0108179
0.0124437
0.0130617
0.0133865
0.00975236
0.0114599
0.0130393
0.0135788
0.0137744
0.00978154
0.0122304
0.013741
0.0141708
0.0141988
0.00975681
0.0130979
0.0145114
0.0147867
0.0146093
0.00964834
0.0140134
0.0152945
0.0153539
0.0149352
0.00947274
0.0149435
0.0160167
0.0157804
0.0150815
0.00935589
0.0158568
0.0165855
0.0159715
0.014956
0.00980763
0.0166419
0.0168817
0.0158541
0.0145197
0.0110072
0.0170728
0.0167822
0.015411
0.0138209
0.0119069
0.0167274
0.0161873
0.0146874