/*--------------------------------*- C++ -*----------------------------------*\
| =========                 |                                                 |
| \\      /  F ield         | OpenFOAM: The Open Source CFD Toolbox           |
|  \\    /   O peration     | Version:  2.3.1                                 |
|   \\  /    A nd           | Web:      www.OpenFOAM.org                      |
|    \\/     M anipulation  |                                                 |
\*---------------------------------------------------------------------------*/
FoamFile
{
    version     2.0;
    format      ascii;
    class       volScalarField;
    location    "600";
    object      nut;
}
// * * * * * * * * * * * * * * * * * * * * * * * * * * * * * * * * * * * * * //

dimensions      [0 2 -1 0 0 0 0];

internalField   nonuniform List<scalar> 
6852
(
0.00316258
0.00238997
0.00310017
0.00380647
0.004333
0.00239832
0.00145662
0.00182779
0.0020926
0.00224085
0.00284551
0.00170345
0.00203862
0.00223094
0.0022938
0.0031649
0.00183156
0.00212323
0.00224409
0.0022165
0.00347205
0.00193243
0.00216492
0.00221258
0.00210568
0.00382057
0.00207483
0.00228921
0.00232522
0.00221197
0.00418941
0.00223381
0.00244208
0.00247904
0.00237148
0.00456047
0.00239757
0.00260626
0.00265097
0.00255421
0.00491966
0.00255963
0.00277417
0.00283283
0.00275264
0.00525181
0.00271296
0.00293757
0.00301549
0.00295793
0.00554154
0.00285049
0.0030883
0.00318955
0.00315938
0.00577377
0.00296461
0.00321737
0.00334597
0.0033537
0.00593671
0.00304879
0.00331616
0.00347283
0.00352469
0.00602421
0.00309887
0.00337836
0.00355925
0.00365375
0.00603662
0.00311358
0.0034014
0.00359926
0.00372964
0.00598003
0.00309444
0.00338657
0.00359248
0.00374848
0.00586462
0.00304515
0.00333827
0.00354349
0.00371372
0.00570273
0.00297067
0.00326272
0.00346014
0.00363414
0.00550704
0.00287628
0.00316669
0.00335155
0.00352104
0.00529184
0.0027657
0.00305632
0.00322652
0.00338583
0.00506467
0.00264319
0.0029364
0.0030924
0.00323844
0.00482956
0.00251714
0.00280653
0.00295435
0.00308643
0.00459062
0.00238848
0.00267199
0.00281382
0.00293472
0.00434357
0.00225755
0.00253451
0.00267386
0.00278413
0.00408387
0.00212381
0.00239363
0.00253489
0.00263908
0.00380806
0.00198592
0.00224834
0.0023949
0.00249815
0.003513
0.00184204
0.00209721
0.00225143
0.00235869
0.00319584
0.00169023
0.00193855
0.00210184
0.00221739
0.00285537
0.00153131
0.00177128
0.00194376
0.00207084
0.00249554
0.00136871
0.00159637
0.00177619
0.00191634
0.00214223
0.00121
0.00141852
0.00160114
0.00175324
0.00190161
0.00107577
0.00125653
0.00142912
0.00158634
0.00178271
0.000985919
0.00113653
0.00128133
0.0014298
0.00173275
0.000934387
0.00106588
0.00118622
0.0013101
0.0017433
0.000913034
0.00102427
0.00113494
0.00123987
0.00175864
0.000893915
0.000985761
0.00108795
0.00118859
0.00174607
0.000865263
0.000943149
0.00103676
0.00113746
0.0016991
0.00082757
0.000901143
0.000984704
0.00108352
0.00162916
0.000796724
0.000873773
0.000947875
0.00104134
0.00156755
0.00079439
0.000873684
0.000942657
0.00102388
0.00237425
0.0017258
0.00190695
0.00202019
0.00214603
0.00200461
0.0010759
0.0014373
0.00177423
0.00201333
0.00112436
0.0015281
0.00163967
0.00167412
0.00163313
0.00125541
0.0015078
0.00150364
0.00143619
0.00135675
0.00135008
0.00148688
0.00141564
0.00134598
0.00140297
0.00145849
0.00147616
0.00137275
0.00135763
0.00146972
0.00158963
0.00149458
0.00139265
0.00145315
0.00161932
0.00173654
0.0015353
0.00143735
0.00154269
0.00180143
0.00189155
0.00158973
0.00148845
0.00160755
0.00195737
0.00204885
0.00165228
0.00154085
0.00164993
0.00206516
0.00220288
0.00171922
0.00159304
0.00167288
0.00209705
0.00234793
0.00178804
0.0016454
0.00168139
0.00201862
0.00247811
0.0018566
0.00169908
0.00168964
0.00191032
0.00258784
0.00192267
0.00175435
0.00170889
0.00182266
0.00267308
0.00198395
0.00180951
0.00174211
0.00177598
0.00273183
0.0020384
0.00186125
0.00178492
0.00176961
0.00276418
0.00208473
0.00190625
0.00183027
0.00178962
0.00277181
0.00212264
0.0019423
0.00187197
0.00182164
0.00275744
0.00215287
0.00196869
0.00190615
0.00185518
0.00272414
0.00217687
0.00198609
0.00193132
0.00188431
0.00267497
0.00219667
0.00199612
0.00194781
0.0019067
0.00261227
0.00221452
0.00200093
0.00195709
0.00192239
0.00253753
0.00223263
0.00200301
0.00196111
0.00193263
0.00244969
0.00225328
0.00200484
0.00196203
0.00193918
0.00234788
0.00227565
0.00200891
0.00196191
0.00194387
0.00223402
0.00229824
0.00201779
0.00196274
0.00194833
0.00211066
0.00231957
0.00203545
0.00196652
0.00195406
0.00197874
0.0023361
0.00206707
0.00197578
0.00196243
0.00183883
0.00234877
0.00211174
0.00199518
0.00197506
0.00169096
0.00235476
0.0021694
0.00202875
0.00199484
0.00153308
0.0023516
0.00223868
0.0020808
0.00202588
0.00136369
0.00233756
0.00231815
0.00215552
0.00207407
0.00118263
0.00230966
0.00239712
0.00225486
0.00214674
0.00099593
0.00225936
0.00246488
0.00237832
0.00225262
0.000846969
0.00219642
0.00251417
0.00250317
0.00239446
0.000818363
0.00214099
0.00254216
0.00261402
0.00255536
0.000827431
0.00210128
0.00255005
0.00269624
0.00270069
0.00082655
0.00204118
0.00253214
0.00272974
0.00279602
0.000802871
0.00190418
0.00246945
0.00271031
0.00282047
0.000771579
0.00166101
0.00234919
0.00263618
0.00278071
0.000754426
0.00123593
0.00186584
0.00237101
0.0025384
0.00161233
0.000864824
0.000966452
0.00103723
0.00111881
0.00200189
0.00107456
0.00144106
0.00177198
0.00201167
0.00110978
0.00149657
0.00155604
0.00155557
0.00149777
0.00120732
0.001477
0.00143858
0.00138094
0.00135958
0.00129659
0.00144392
0.00138017
0.00136294
0.00139987
0.00140635
0.00142048
0.00136359
0.00137922
0.00135447
0.00153686
0.0014093
0.00137303
0.00141847
0.00136412
0.00168241
0.00140892
0.00138984
0.00148258
0.00145182
0.00183695
0.00141911
0.0014059
0.00156043
0.00158287
0.00199587
0.00143877
0.00141622
0.00162861
0.00171899
0.00215487
0.00146619
0.00141801
0.00166488
0.00183042
0.00230906
0.00149998
0.00141186
0.0016556
0.00189727
0.00245283
0.00153939
0.00140319
0.00160707
0.00191629
0.00258031
0.00158366
0.00139899
0.00154053
0.00186584
0.00268669
0.00163141
0.00140346
0.00148002
0.00177099
0.00276895
0.00168066
0.00141701
0.00143862
0.00166749
0.00282591
0.00172934
0.00143756
0.00141783
0.00158146
0.00285806
0.00177572
0.00146225
0.00141357
0.00152315
0.00286703
0.00181876
0.00148857
0.00142044
0.00149014
0.00285507
0.00185816
0.0015148
0.00143374
0.00147559
0.00282462
0.00189431
0.00154009
0.00145012
0.00147293
0.00277794
0.0019281
0.00156428
0.00146757
0.00147738
0.00271664
0.00196088
0.0015878
0.00148507
0.00148583
0.00264026
0.00199008
0.00161145
0.00150239
0.00149654
0.00255131
0.00201733
0.00163626
0.00151974
0.00150871
0.00245183
0.00204416
0.00166367
0.00153768
0.00152214
0.00234288
0.00206751
0.00169826
0.00155721
0.00153709
0.00222473
0.00208855
0.00173939
0.00158132
0.00155421
0.00209629
0.00210831
0.00178671
0.0016124
0.0015758
0.00195584
0.00212743
0.00184072
0.00165279
0.00160356
0.00180269
0.00214602
0.001902
0.00170502
0.0016398
0.00163613
0.00216356
0.00197122
0.00177147
0.00168772
0.00145506
0.00217881
0.00204847
0.001854
0.00175123
0.00125822
0.00218909
0.0021328
0.00195357
0.00183429
0.00104587
0.00219097
0.00222236
0.00206935
0.00194021
0.000828698
0.00218417
0.00231615
0.00219976
0.00207028
0.000778592
0.00220542
0.00241851
0.00234471
0.00222386
0.000806464
0.00224342
0.00252347
0.0025004
0.00239988
0.000809202
0.00224692
0.00260215
0.00264485
0.00258915
0.000790868
0.00214526
0.00261576
0.0027502
0.00276851
0.000778973
0.00159724
0.002379
0.00266347
0.00276398
0.00168121
0.000911393
0.00101971
0.00109661
0.00117304
0.00194132
0.00104086
0.00140019
0.00172661
0.00197395
0.00108271
0.00143659
0.00151164
0.00154007
0.00150708
0.00118358
0.00149316
0.00149146
0.00146077
0.00142725
0.00129051
0.00149422
0.00147795
0.00145163
0.00143241
0.00142195
0.00147846
0.00147393
0.00145099
0.00139384
0.00157538
0.00145685
0.00147681
0.00145407
0.00135384
0.00174351
0.0014345
0.00148004
0.0014645
0.00133954
0.0019155
0.00141067
0.00147892
0.00148477
0.00135085
0.0020857
0.00139404
0.0014701
0.0015133
0.0013756
0.00225099
0.00139261
0.00145076
0.00154667
0.00140439
0.00240687
0.00140593
0.00142021
0.00157734
0.00143395
0.00254818
0.00143161
0.00138917
0.00158844
0.00147515
0.00266995
0.00146688
0.00136512
0.00156739
0.00153485
0.00276846
0.00150838
0.00135211
0.00152544
0.00158437
0.00284157
0.00155275
0.00135074
0.00147869
0.00160715
0.00288882
0.00159716
0.00135935
0.00143875
0.00160161
0.00291114
0.00163961
0.0013754
0.00141064
0.00157817
0.00291047
0.00167901
0.00139637
0.00139465
0.00154911
0.0028893
0.00171498
0.00142026
0.00138891
0.00152249
0.00285023
0.00174774
0.00144566
0.00139104
0.00150177
0.00279575
0.00177787
0.00147176
0.0013989
0.00148757
0.0027279
0.00180626
0.00149827
0.00141092
0.00147926
0.0026482
0.00183367
0.00152526
0.0014261
0.0014759
0.00255795
0.00186087
0.00155311
0.00144389
0.00147668
0.00245802
0.00188853
0.00158249
0.00146419
0.0014811
0.00234868
0.00191672
0.00161461
0.0014873
0.00148903
0.00222973
0.0019456
0.00165059
0.00151407
0.00150074
0.00210048
0.00197531
0.00169162
0.00154571
0.00151709
0.00195994
0.00200587
0.00173902
0.00158373
0.00153937
0.00180713
0.00203693
0.00179411
0.00162999
0.00156934
0.00164132
0.00206751
0.00185797
0.00168653
0.00160921
0.00146172
0.00209569
0.00193095
0.0017554
0.00166158
0.00126735
0.00211812
0.00201196
0.00183794
0.00172869
0.00105977
0.00213032
0.00209819
0.0019343
0.00181243
0.000844114
0.00213079
0.00218637
0.00204348
0.00191417
0.000753985
0.00216401
0.00228281
0.00216594
0.00203523
0.000796642
0.0022342
0.00239388
0.00230326
0.00217813
0.000810322
0.00228924
0.00250679
0.00245349
0.00234768
0.000799956
0.00219082
0.00257625
0.00260891
0.00256103
0.000788644
0.00178569
0.0024193
0.00262442
0.00267223
0.00169923
0.000927193
0.00103509
0.00110362
0.00116494
0.0017807
0.000923309
0.00125365
0.0015721
0.00183245
0.00100451
0.00135092
0.00147966
0.0015932
0.00163675
0.00113302
0.00148091
0.00154928
0.00160081
0.00161051
0.00127317
0.00152544
0.00157137
0.00159924
0.00158695
0.00143001
0.00150071
0.00157043
0.00158868
0.0015474
0.00159712
0.00144156
0.00154949
0.0015745
0.00152005
0.00177058
0.00139155
0.00150874
0.00154883
0.00150911
0.00194451
0.00137055
0.00145729
0.00151152
0.00150719
0.00211358
0.00138001
0.00141024
0.00146811
0.00148584
0.00227318
0.00141358
0.00137837
0.00142686
0.00145062
0.00241859
0.00146341
0.00136512
0.0013949
0.00141173
0.00254504
0.00152272
0.00136929
0.00137685
0.00138077
0.00264845
0.00158584
0.00138711
0.00137241
0.00136275
0.00272626
0.00164843
0.00141433
0.00137895
0.00135814
0.0027776
0.00170749
0.00144714
0.00139305
0.00136422
0.0028031
0.0017613
0.00148258
0.00141168
0.00137715
0.00280458
0.00180925
0.00151865
0.00143261
0.00139359
0.0027846
0.00185152
0.0015541
0.0014544
0.00141122
0.00274605
0.00188881
0.00158832
0.00147622
0.00142873
0.00269179
0.00192208
0.00162115
0.00149766
0.00144551
0.00262436
0.00195234
0.00165276
0.00151864
0.00146145
0.00254578
0.00198056
0.00168358
0.00153939
0.0014767
0.00245748
0.00200755
0.00171427
0.00156036
0.00149166
0.00236031
0.0020339
0.00174563
0.00158223
0.00150686
0.0022546
0.00205994
0.00177864
0.00160592
0.00152303
0.00214015
0.00208572
0.00181442
0.00163262
0.00154113
0.0020163
0.00211097
0.00185413
0.00166372
0.00156236
0.00188198
0.0021351
0.00189886
0.00170091
0.00158833
0.00173577
0.00215711
0.00194948
0.00174603
0.00162103
0.00157604
0.00217535
0.00200641
0.00180102
0.00166302
0.00140135
0.00218705
0.00206909
0.00186754
0.00171716
0.00121131
0.00218819
0.0021354
0.00194641
0.00178659
0.00101151
0.00217288
0.00220079
0.00203633
0.00187307
0.000808447
0.00214279
0.00226009
0.00213355
0.00197617
0.000773211
0.00213122
0.00231523
0.00223404
0.00209371
0.000804414
0.00215495
0.00237476
0.0023362
0.00222246
0.000826587
0.00219647
0.00244119
0.00243786
0.00235761
0.000822613
0.002183
0.00249354
0.00252913
0.00248961
0.000797078
0.00186976
0.00247205
0.00259015
0.00260586
0.000780325
0.0014541
0.00216484
0.00247367
0.00256885
0.00167144
0.000906623
0.00100478
0.00107033
0.00112832
0.0025043
0.00174847
0.0022247
0.00284606
0.00341123
0.00189622
0.000940567
0.00113723
0.00139765
0.00163468
0.00224634
0.00106503
0.0012219
0.00147509
0.00174478
0.00261681
0.0012002
0.0013315
0.0015707
0.00186147
0.00300245
0.00134812
0.00145651
0.00168658
0.00198005
0.00338971
0.00150562
0.00159309
0.00181316
0.00209394
0.00376851
0.00166632
0.00173759
0.00194782
0.00220773
0.00413001
0.00182398
0.00188487
0.00208776
0.00232539
0.00446626
0.00197357
0.00202948
0.00222902
0.00245226
0.00476954
0.00211096
0.00216586
0.00236582
0.00258495
0.00503192
0.00223256
0.00228869
0.0024908
0.00271459
0.00524578
0.00233501
0.00239288
0.00259469
0.00282359
0.0054058
0.00241597
0.00247512
0.00267195
0.00289804
0.00551082
0.00247542
0.00253594
0.00272429
0.00294076
0.00556298
0.00251501
0.00257798
0.0027559
0.00295761
0.00556674
0.00253718
0.0026047
0.00277181
0.00295589
0.00552798
0.00254463
0.00261957
0.00277688
0.0029429
0.00545302
0.00253985
0.00262543
0.00277482
0.0029241
0.00534789
0.0025248
0.0026242
0.00276801
0.0029028
0.00521783
0.00250085
0.00261688
0.00275754
0.00288057
0.00506687
0.00246874
0.00260368
0.00274353
0.00285767
0.00489769
0.00242859
0.00258412
0.00272535
0.00283351
0.00471151
0.00238
0.00255721
0.00270186
0.002807
0.00450823
0.00232213
0.00252155
0.00267161
0.00277673
0.0042866
0.00225381
0.00247548
0.00263291
0.0027411
0.00404426
0.00217358
0.00241719
0.00258399
0.00269843
0.00377786
0.00207986
0.00234486
0.00252307
0.00264701
0.00348307
0.00197103
0.0022567
0.00244837
0.00258501
0.00315473
0.00184561
0.0021511
0.00235814
0.00251047
0.00278709
0.00170247
0.00202681
0.00225065
0.00242106
0.00237972
0.00154161
0.00188334
0.00212451
0.00231428
0.00197137
0.00136698
0.00172202
0.00197916
0.00218773
0.00175778
0.00119316
0.00154791
0.00181575
0.00203917
0.00165017
0.00102986
0.00136903
0.00163886
0.00187031
0.00164155
0.000881513
0.00119544
0.00145597
0.00168568
0.00167482
0.000812756
0.00104732
0.00127813
0.00149198
0.00169663
0.000816259
0.000920282
0.00111187
0.00129706
0.00168425
0.000808734
0.000816038
0.000965057
0.00111263
0.00164923
0.000805568
0.000846331
0.00086969
0.000983764
0.00162531
0.000835214
0.000906064
0.000943691
0.000982554
0.00249426
0.00183596
0.00200968
0.00208069
0.00212628
0.000999183
0.000721967
0.000808897
0.000889721
0.000716194
0.000391137
0.000452517
0.000513463
0.000797573
0.000442969
0.000518014
0.000575677
0.000874814
0.000488415
0.000564561
0.000608565
0.000625782
0.000957462
0.000528054
0.000599653
0.000633911
0.000631385
0.00105477
0.000568777
0.000635299
0.000663367
0.000652093
0.00116668
0.00061377
0.000675062
0.000699198
0.000684885
0.00129062
0.000662889
0.000718119
0.000738892
0.000723899
0.00142442
0.000716227
0.000764508
0.000782285
0.000768642
0.00156427
0.000773099
0.000813453
0.000828321
0.000817846
0.00170573
0.00083306
0.000864857
0.000876878
0.000872285
0.00184181
0.000894035
0.000916572
0.000924158
0.000924135
0.00196528
0.000953056
0.000967502
0.000968161
0.000966561
0.00207046
0.001007
0.00101732
0.00100993
0.00100293
0.00215387
0.00105405
0.00106499
0.00104975
0.00103532
0.00221409
0.00109264
0.00110875
0.00108671
0.00106427
0.00225173
0.00112172
0.00114633
0.00111905
0.00108935
0.00226911
0.0011409
0.00117483
0.00114512
0.00110945
0.00226993
0.00115061
0.00119237
0.00116369
0.00112359
0.00225894
0.00115241
0.0012006
0.00117454
0.00113156
0.0022412
0.0011485
0.00120162
0.00117852
0.00113397
0.00222133
0.00114125
0.00119777
0.0011773
0.00113168
0.00220294
0.00113283
0.00119139
0.00117305
0.00112702
0.00218847
0.00112497
0.00118454
0.00116794
0.00112217
0.00217913
0.00111885
0.00117883
0.00116382
0.00111883
0.00217509
0.00111511
0.00117539
0.00116206
0.00111835
0.00217558
0.00111386
0.00117475
0.00116343
0.00112156
0.002179
0.00111473
0.00117691
0.00116814
0.00112877
0.00218301
0.00111688
0.00118135
0.00117584
0.00113982
0.00218456
0.00111908
0.00118706
0.0011856
0.00115394
0.00217983
0.00111968
0.00119252
0.00119593
0.00116966
0.00216411
0.00111658
0.00119573
0.00120492
0.00118461
0.00213153
0.00110722
0.00119425
0.00121032
0.00119613
0.00207456
0.00108842
0.00118516
0.00120985
0.00120309
0.00198318
0.00105605
0.00116464
0.00120133
0.00120425
0.00184398
0.0010045
0.00112704
0.00118012
0.00119559
0.00164276
0.000928511
0.0010654
0.00113167
0.0011671
0.0013753
0.00082123
0.000968708
0.00104493
0.00109705
0.00110524
0.000676394
0.000831173
0.000910817
0.000973614
0.000983648
0.000512802
0.000636897
0.000716747
0.00078989
0.00151502
0.00106156
0.00113993
0.00126011
0.00140498
0.000656727
0.000342396
0.000388064
0.000446365
0.000347266
0.000912251
0.00142225
0.00170899
0.000396022
0.00134024
0.00192096
0.0022368
0.00044054
0.00161307
0.00220252
0.00249023
0.000482654
0.00175701
0.00235589
0.0026173
0.00254577
0.000528325
0.00184317
0.00244607
0.00268163
0.00257185
0.000577047
0.00188892
0.00249543
0.00271223
0.0025783
0.000628848
0.00190391
0.00251415
0.00271742
0.00257131
0.000683748
0.00189262
0.00250623
0.00270285
0.00255533
0.000741
0.00185606
0.0024719
0.00267192
0.00253739
0.000799585
0.00179584
0.00240907
0.00262041
0.00251314
0.000857444
0.00171267
0.00231651
0.0025483
0.00249348
0.000912061
0.00160134
0.00220056
0.00245539
0.00246012
0.000961049
0.00146844
0.00206889
0.00234641
0.00241161
0.00100224
0.00134511
0.00193133
0.00222818
0.00234853
0.00103401
0.00124455
0.00179712
0.00210923
0.00227667
0.00105563
0.00116795
0.00167348
0.00199777
0.00220505
0.00106747
0.00111211
0.001555
0.00189981
0.00214262
0.00107088
0.00107222
0.00143728
0.0018191
0.00209651
0.00106793
0.00104414
0.0013411
0.00175797
0.00207067
0.00106105
0.00102464
0.00127144
0.00171877
0.00206224
0.0010526
0.00101161
0.0012282
0.00169934
0.00206781
0.0010445
0.0010036
0.00120504
0.00169535
0.00208247
0.00103813
0.000999637
0.00119637
0.00170189
0.00210037
0.00103425
0.000998918
0.00119736
0.00171418
0.00211887
0.00103313
0.00100059
0.00120357
0.00172741
0.00213324
0.00103457
0.00100372
0.00121105
0.00173796
0.00214093
0.00103805
0.00100735
0.00121672
0.00174378
0.00214178
0.00104274
0.00101067
0.00121864
0.0017443
0.00213721
0.00104757
0.00101321
0.00121625
0.00174074
0.00212911
0.00105115
0.00101489
0.00120999
0.0017362
0.0021218
0.00105171
0.00101592
0.00120039
0.00173233
0.00211842
0.00104691
0.00101685
0.00118796
0.00173095
0.00210921
0.00103353
0.00101826
0.00117078
0.00173157
0.00208199
0.00100684
0.00102127
0.0011518
0.00171376
0.00203104
0.000959859
0.00102629
0.00113523
0.00165513
0.00194943
0.000883851
0.00103244
0.00111688
0.00151572
0.00182838
0.0007724
0.0010326
0.00110282
0.00138584
0.00163077
0.000633018
0.00102008
0.00109588
0.00129965
0.00147394
0.000535414
0.00097866
0.00108796
0.00124318
0.0013633
0.00112279
0.000597481
0.000653457
0.000700616
0.000749566
0.000678071
0.000346261
0.000385432
0.000510307
0.000361678
0.00119755
0.00171212
0.00196425
0.000410962
0.00169066
0.00235478
0.00268265
0.000457136
0.00197542
0.00269823
0.00300871
0.000502972
0.00214099
0.00288061
0.00316343
0.000551904
0.00224197
0.00298972
0.00324652
0.00308479
0.000603293
0.00229895
0.00305663
0.003292
0.00310005
0.000657102
0.00232256
0.00309266
0.00330797
0.0030957
0.000713271
0.00231641
0.00310182
0.00330222
0.00307676
0.000771023
0.00227973
0.00308476
0.00328338
0.00306276
0.000829619
0.00221257
0.00303916
0.00324763
0.00304999
0.000887561
0.00211431
0.00296404
0.00319707
0.00306031
0.000943008
0.00199523
0.00286749
0.00313055
0.00307334
0.00099393
0.00186581
0.00275756
0.00305516
0.00308362
0.0010381
0.00173231
0.00264353
0.00297741
0.00308635
0.0010736
0.00160238
0.00253313
0.00290659
0.00308501
0.00109932
0.00148595
0.00243328
0.00285072
0.00308845
0.0011151
0.00138881
0.00234804
0.00281557
0.00310482
0.00112183
0.00131278
0.00227887
0.00280437
0.00313869
0.00112137
0.00125693
0.00222755
0.00281713
0.00318923
0.00111614
0.00121917
0.00219595
0.0028471
0.00325017
0.00110871
0.00119688
0.00217591
0.00288489
0.00331186
0.00110131
0.00118721
0.0021679
0.00292382
0.00336485
0.00109556
0.0011871
0.00216985
0.00295948
0.00340083
0.00109243
0.00119347
0.00217875
0.00298751
0.00341571
0.00109227
0.00120317
0.00219058
0.0030036
0.00341135
0.00109495
0.00121309
0.00220007
0.00300654
0.00339062
0.00109999
0.00122058
0.00220375
0.00299672
0.00335667
0.00110664
0.00122384
0.00220049
0.00297468
0.00331195
0.00111396
0.00122227
0.00219284
0.00294243
0.00325606
0.00112085
0.00121605
0.00218392
0.00290323
0.00318595
0.00112589
0.001206
0.00217318
0.00285024
0.00310172
0.00112729
0.00119316
0.00216567
0.00276899
0.00300065
0.00112246
0.00117979
0.00213971
0.00266433
0.00288133
0.00110689
0.00117686
0.00206466
0.00253795
0.0027438
0.00107167
0.001165
0.00194292
0.00239339
0.0025933
0.00100954
0.00115099
0.00178429
0.00223589
0.00244019
0.000911891
0.00114312
0.00162106
0.00203335
0.00227328
0.000777357
0.0011478
0.00150365
0.00183713
0.00205898
0.000644639
0.00115058
0.00142351
0.00165678
0.0018069
0.00132745
0.00068196
0.000736557
0.000779634
0.000823357
0.000701826
0.00036164
0.000449996
0.000596079
0.000377015
0.00128819
0.00178289
0.00203867
0.000425754
0.00181268
0.00249155
0.0028183
0.000474149
0.00210343
0.00285036
0.00314208
0.000522957
0.00226519
0.00302286
0.00328234
0.000574779
0.00235844
0.00311543
0.00335609
0.00062899
0.00240787
0.00316758
0.00339069
0.00319117
0.00068543
0.00242423
0.00318969
0.00339274
0.00317358
0.000743839
0.00240957
0.00318357
0.00337108
0.00313598
0.000803229
0.00236149
0.00314902
0.00333838
0.00312072
0.000863008
0.00227972
0.00308307
0.00328723
0.00311484
0.000921959
0.0021637
0.00298593
0.00321833
0.00313366
0.000978538
0.00202672
0.00286991
0.00313418
0.00315354
0.00103095
0.00188044
0.00274245
0.00304581
0.00316455
0.00107693
0.00174275
0.00261193
0.00296556
0.00316569
0.00111355
0.00160938
0.00249512
0.00290487
0.00316889
0.0011399
0.00149516
0.00240544
0.00287356
0.00319011
0.0011565
0.00140689
0.00235131
0.00287723
0.00323806
0.00116459
0.0013458
0.0023368
0.0029166
0.00331239
0.00116497
0.00130135
0.00236042
0.00298635
0.00340395
0.00116015
0.0012703
0.00241601
0.00307539
0.003498
0.0011531
0.001259
0.00248198
0.00316833
0.00357879
0.00114626
0.00126467
0.00254895
0.00325122
0.00363509
0.00114133
0.00128192
0.00261198
0.00331319
0.00366246
0.0011392
0.00130521
0.00266671
0.00334752
0.0036604
0.00114009
0.00132895
0.00270656
0.00335674
0.0036317
0.00114367
0.00134864
0.00273063
0.00334384
0.00358107
0.00114932
0.00136139
0.00273943
0.00331122
0.00351308
0.00115623
0.00136622
0.0027365
0.00325773
0.00343121
0.00116355
0.00136334
0.00272267
0.00318352
0.00333754
0.00117044
0.00135381
0.00269224
0.00309212
0.00323371
0.00117615
0.00135096
0.00262881
0.00298466
0.00311949
0.00118
0.00136147
0.00253596
0.00286285
0.00299406
0.00118064
0.00138258
0.00242599
0.00272872
0.00285545
0.00117353
0.00138912
0.00230046
0.00258087
0.00270129
0.00115206
0.00136093
0.00215404
0.00241876
0.0025353
0.00110746
0.00130219
0.00198469
0.00224942
0.00237188
0.00102831
0.00123776
0.00179924
0.00209011
0.00223885
0.000909206
0.00119936
0.00165219
0.00194849
0.00212664
0.000767574
0.00120404
0.00154583
0.00177795
0.00191386
0.00155261
0.000758817
0.000810141
0.000852797
0.000894728
0.000718181
0.000377892
0.000542324
0.000687271
0.000388806
0.00134609
0.00185365
0.00211066
0.00043984
0.00190336
0.00259181
0.00291561
0.000493156
0.00219985
0.00293587
0.00321663
0.000546603
0.00234487
0.00309072
0.00333316
0.000602991
0.00242187
0.00316572
0.00339286
0.000660634
0.00245793
0.00319798
0.00341668
0.000718979
0.00246253
0.00320093
0.00340562
0.00320097
0.000777696
0.00243563
0.00317339
0.00336947
0.00315746
0.000836067
0.00237368
0.00311388
0.00332192
0.00315444
0.000894532
0.00227689
0.00301947
0.00324957
0.00315722
0.000951972
0.00214468
0.00289304
0.00315261
0.00318053
0.00100701
0.00199433
0.00274435
0.00304427
0.00319059
0.00105612
0.00181424
0.00258924
0.00294001
0.00317628
0.00109759
0.00164485
0.00244975
0.0028571
0.00315217
0.00113009
0.00150533
0.00234147
0.0028083
0.0031439
0.00115312
0.0014006
0.0022751
0.00280155
0.00317042
0.00116727
0.00132906
0.00225597
0.00283715
0.00323258
0.00117397
0.00128684
0.00228437
0.00290914
0.0033201
0.00117509
0.00127163
0.00235451
0.00300511
0.00341602
0.00117279
0.00128129
0.00245529
0.00310863
0.00350219
0.00116811
0.0013039
0.00256983
0.00320294
0.00356398
0.00116287
0.0013292
0.00268077
0.00327571
0.00359442
0.00115937
0.00135723
0.00277403
0.0033208
0.00359407
0.00115859
0.00138948
0.00283798
0.00333626
0.00356644
0.00116055
0.001419
0.00287667
0.00332421
0.00351664
0.00116465
0.00144161
0.00289343
0.00328866
0.00345028
0.00117005
0.00145939
0.00288649
0.00323336
0.00337214
0.00117591
0.00147923
0.002853
0.00316172
0.00328596
0.00118153
0.00150519
0.00279853
0.00307777
0.00319422
0.00118659
0.00154425
0.00272933
0.00298556
0.0030981
0.00119146
0.00160467
0.00265257
0.00288781
0.00299642
0.00119749
0.00169693
0.00257283
0.00278423
0.0028858
0.00120498
0.00179258
0.00248493
0.00266905
0.00275939
0.00120897
0.0018278
0.00237395
0.00253377
0.00261142
0.00120178
0.00177094
0.00222941
0.00237646
0.00244518
0.00117415
0.00162747
0.00205131
0.00220425
0.00227585
0.00111488
0.00143265
0.00183771
0.00202452
0.00212301
0.00101798
0.00127159
0.00163812
0.0018683
0.00201618
0.000888452
0.00119847
0.00151278
0.00172032
0.00184507
0.00179351
0.000844511
0.000888409
0.000931667
0.000973548
0.000741564
0.000423703
0.000629358
0.000772492
0.000400076
0.00138839
0.00194193
0.00219618
0.000456201
0.00197822
0.0026914
0.00301054
0.000518991
0.00227554
0.00300768
0.00328239
0.000580202
0.00240763
0.00313616
0.00337484
0.000640345
0.00246735
0.00319466
0.00342209
0.000699585
0.0024899
0.00320787
0.00343818
0.00075801
0.00248184
0.0031916
0.0034191
0.000815662
0.00244146
0.00314188
0.00337273
0.00322046
0.000871648
0.00236535
0.00305661
0.00331023
0.00323453
0.0009257
0.00225547
0.00293496
0.00321448
0.00323417
0.000978201
0.00210798
0.00277978
0.00309306
0.00325501
0.0010265
0.00192236
0.00261634
0.00297145
0.00324413
0.00106843
0.001744
0.00246938
0.00286774
0.00319715
0.00110239
0.00159958
0.00235962
0.00280308
0.00315559
0.00112764
0.00149579
0.00229611
0.00278544
0.00315138
0.00114439
0.00143052
0.00228189
0.00281385
0.00319213
0.00115376
0.00139853
0.00231322
0.00287793
0.00326275
0.0011575
0.00139477
0.00238235
0.0029639
0.00334488
0.00115762
0.00141285
0.00247757
0.00305555
0.0034209
0.00115607
0.00144842
0.00258405
0.00313753
0.00347723
0.00115426
0.00149928
0.00268671
0.00319867
0.00350633
0.00115245
0.00155304
0.00277234
0.0032337
0.00350725
0.00115164
0.00159793
0.0028336
0.00324257
0.00348378
0.00115281
0.00163538
0.00286811
0.00322788
0.00344078
0.00115585
0.00166802
0.00287729
0.00319369
0.00338341
0.00116006
0.00169993
0.00286499
0.00314473
0.00331654
0.00116461
0.00173737
0.00283601
0.0030857
0.00324439
0.00116888
0.00178877
0.00279607
0.00302126
0.0031702
0.00117291
0.00186397
0.00275128
0.00295513
0.00309565
0.00117802
0.00196943
0.0027047
0.00288803
0.00301941
0.00118581
0.00208378
0.00265439
0.00281682
0.0029373
0.00119624
0.00215868
0.00259051
0.00273399
0.00284191
0.00120624
0.00215331
0.00249986
0.00263002
0.00272364
0.00121225
0.00208074
0.00238083
0.00250137
0.0025788
0.00120986
0.00196458
0.00224014
0.00235324
0.0024142
0.00119336
0.00181189
0.00208156
0.00219539
0.00224805
0.00115372
0.00159259
0.00188667
0.00202238
0.00208792
0.00108592
0.00133587
0.00161961
0.00180781
0.00193507
0.000987716
0.00118277
0.00144517
0.00162868
0.00174233
0.00201908
0.000935201
0.00097159
0.00101694
0.00106091
0.000802407
0.000511526
0.00070912
0.000848583
0.000424476
0.0014309
0.00204477
0.00229142
0.000490478
0.00204355
0.00278583
0.00310247
0.000558255
0.00233572
0.0030665
0.00334194
0.00062115
0.0024551
0.00316885
0.00341421
0.000681648
0.00250127
0.00320953
0.00345068
0.000739943
0.00251185
0.00320474
0.00346176
0.000796163
0.00249186
0.00317035
0.00343992
0.000850401
0.00243926
0.00310011
0.00338632
0.00090192
0.00235192
0.00299285
0.00330799
0.00334998
0.000951131
0.00223306
0.00285208
0.00319205
0.0033381
0.000996574
0.00206221
0.00268479
0.00305965
0.00335324
0.00103639
0.00188707
0.00253691
0.0029406
0.00331584
0.00106899
0.00174274
0.00242728
0.00285555
0.00324246
0.00109334
0.00164513
0.00237
0.0028246
0.00320345
0.00110952
0.00159307
0.00236322
0.00284366
0.00321768
0.0011186
0.00158145
0.00240046
0.00289926
0.00327113
0.00112233
0.00160324
0.0024688
0.00297293
0.00333805
0.00112273
0.00165156
0.00255401
0.00304893
0.00340192
0.00112174
0.001719
0.00264161
0.00311405
0.00345118
0.00112094
0.00179715
0.00271994
0.00315979
0.00347954
0.00112128
0.00187511
0.00278136
0.00318297
0.00348534
0.0011229
0.00194144
0.00282245
0.00318476
0.00347042
0.00112572
0.00199616
0.00284324
0.00316823
0.00343851
0.00112925
0.00203459
0.00284527
0.00313748
0.00339388
0.00113344
0.00206837
0.00283262
0.00309694
0.00334067
0.00113793
0.00210687
0.00280985
0.003051
0.00328284
0.00114245
0.00215681
0.00278129
0.00300347
0.00322373
0.00114717
0.00221914
0.00275067
0.00295709
0.00316534
0.00115249
0.0022819
0.00271782
0.00291168
0.00310732
0.00115798
0.00230684
0.00267564
0.00286237
0.00304545
0.00116287
0.00228567
0.00261858
0.00280328
0.00297386
0.00116597
0.00223251
0.0025474
0.00272934
0.00288445
0.00116583
0.0021614
0.00246416
0.00263641
0.00276859
0.0011633
0.00208248
0.00237033
0.0025236
0.00262471
0.00115965
0.00199705
0.00226609
0.00239473
0.00246111
0.00115458
0.00189487
0.00215107
0.00226042
0.00230103
0.00113689
0.00175074
0.00201752
0.00212675
0.00215669
0.0011026
0.00143756
0.00170096
0.00185297
0.00194427
0.00105222
0.00120055
0.00142096
0.0015745
0.00166411
0.00219957
0.00102386
0.00105766
0.00110753
0.001156
0.000916107
0.000595082
0.000781123
0.000914323
0.000479916
0.00147502
0.00214508
0.00239213
0.000542839
0.00210554
0.00286947
0.00318942
0.000607379
0.00238701
0.00311191
0.00339575
0.000667313
0.00249224
0.003188
0.0034517
0.000724786
0.00252646
0.00321164
0.00348085
0.000779711
0.00252618
0.00319137
0.00348825