/*--------------------------------*- C++ -*----------------------------------*\
| =========                 |                                                 |
| \\      /  F ield         | OpenFOAM: The Open Source CFD Toolbox           |
|  \\    /   O peration     | Version:  2.3.1                                 |
|   \\  /    A nd           | Web:      www.OpenFOAM.org                      |
|    \\/     M anipulation  |                                                 |
\*---------------------------------------------------------------------------*/
FoamFile
{
    version     2.0;
    format      ascii;
    class       volScalarField;
    location    "600";
    object      p;
}
// * * * * * * * * * * * * * * * * * * * * * * * * * * * * * * * * * * * * * //

dimensions      [0 2 -2 0 0 0 0];

internalField   nonuniform List<scalar> 
6852
(
77.8474
77.8447
77.8416
77.8387
77.8386
77.8517
77.8466
77.841
77.8352
77.8322
77.8536
77.8461
77.8372
77.8279
77.8219
77.8521
77.8423
77.8301
77.8182
77.8127
77.8464
77.8349
77.8208
77.8081
77.8046
77.837
77.8243
77.8094
77.7975
77.7971
77.8229
77.8093
77.7935
77.7814
77.7821
77.8043
77.7905
77.7741
77.7613
77.7612
77.7819
77.7682
77.7514
77.7377
77.736
77.7565
77.7433
77.7265
77.7118
77.7076
77.7293
77.717
77.7006
77.6851
77.6784
77.7015
77.6903
77.6747
77.6587
77.6493
77.6743
77.6644
77.65
77.6342
77.6233
77.6487
77.64
77.6271
77.6122
77.6007
77.6251
77.6176
77.6063
77.5927
77.5814
77.604
77.5975
77.5878
77.5755
77.5649
77.5852
77.5797
77.5713
77.5605
77.5506
77.5688
77.564
77.5568
77.5472
77.5382
77.5545
77.5504
77.5441
77.5356
77.5273
77.5421
77.5387
77.533
77.5254
77.5177
77.5316
77.5285
77.5235
77.5165
77.5093
77.5228
77.5198
77.5154
77.5088
77.5019
77.5155
77.5127
77.5086
77.5024
77.4955
77.5098
77.5072
77.5032
77.497
77.4901
77.5055
77.5031
77.4991
77.493
77.4858
77.5027
77.5005
77.4965
77.4902
77.4827
77.5014
77.4993
77.4953
77.4887
77.4808
77.5014
77.4993
77.4954
77.4886
77.4802
77.5027
77.5007
77.4967
77.4897
77.4809
77.5052
77.5032
77.4993
77.4921
77.4829
77.5086
77.5068
77.5027
77.4955
77.4861
77.5124
77.511
77.5067
77.4997
77.4904
77.5168
77.5157
77.5114
77.5043
77.4954
77.5212
77.5204
77.5164
77.5094
77.5009
77.5251
77.5247
77.5213
77.5153
77.5071
77.5287
77.5288
77.5261
77.5213
77.514
77.5322
77.5325
77.5305
77.5272
77.5216
77.5361
77.5362
77.535
77.5332
77.53
77.5403
77.5402
77.5398
77.5397
77.539
77.5442
77.5441
77.5448
77.5465
77.5483
77.547
77.5475
77.5497
77.5534
77.5572
76.8347
76.8311
76.8274
76.8227
76.82
76.8414
76.8337
76.8266
76.8194
76.8134
76.8429
76.8323
76.8206
76.8076
76.7957
76.8396
76.826
76.8097
76.7919
76.7776
76.8315
76.816
76.7971
76.7779
76.7664
76.8206
76.8036
76.7835
76.7649
76.7568
76.8063
76.788
76.7667
76.7479
76.7406
76.7884
76.7693
76.7472
76.7279
76.7197
76.7671
76.748
76.7252
76.7049
76.6946
76.7431
76.7245
76.7014
76.6802
76.667
76.7173
76.6998
76.677
76.6553
76.6393
76.6908
76.6748
76.6529
76.6312
76.6131
76.6648
76.6505
76.6303
76.6094
76.5914
76.64
76.6275
76.6094
76.5902
76.5732
76.6171
76.6063
76.5904
76.5731
76.5576
76.5963
76.587
76.5733
76.5579
76.5441
76.5776
76.5696
76.5579
76.5445
76.532
76.5611
76.5541
76.5441
76.5324
76.5213
76.5465
76.5404
76.5319
76.5216
76.5116
76.5338
76.5284
76.5211
76.5119
76.5028
76.5229
76.5181
76.5117
76.5034
76.495
76.5137
76.5093
76.5036
76.496
76.488
76.5058
76.5021
76.4968
76.4897
76.482
76.4994
76.4964
76.4913
76.4845
76.4769
76.4945
76.4922
76.4872
76.4805
76.4728
76.4913
76.4893
76.4845
76.4777
76.4698
76.4896
76.4878
76.4832
76.4762
76.4679
76.4894
76.4878
76.4832
76.4758
76.4673
76.4906
76.4892
76.4845
76.4768
76.4678
76.493
76.4919
76.4871
76.4791
76.4697
76.4965
76.4957
76.4909
76.4826
76.4728
76.5007
76.5001
76.4956
76.4871
76.477
76.5055
76.505
76.5009
76.4925
76.4823
76.5096
76.5094
76.5061
76.4986
76.4886
76.5131
76.5133
76.5108
76.5048
76.4959
76.5162
76.5169
76.5151
76.5105
76.5035
76.5192
76.52
76.5187
76.5158
76.5108
76.5227
76.523
76.5219
76.5208
76.5182
76.5266
76.5262
76.526
76.5264
76.5263
76.5307
76.5299
76.5302
76.5324
76.5352
76.5343
76.5338
76.5362
76.5412
76.5465
75.819
75.8156
75.8116
75.8052
75.7991
75.8249
75.8172
75.8096
75.8004
75.7906
75.824
75.8134
75.8003
75.7841
75.7674
75.8158
75.8022
75.7837
75.7622
75.7431
75.8021
75.7872
75.7666
75.7454
75.7297
75.7861
75.77
75.7483
75.7285
75.7159
75.768
75.7509
75.7281
75.7086
75.6967
75.7482
75.7303
75.7062
75.686
75.6735
75.7268
75.7085
75.6829
75.6611
75.6466
75.7042
75.686
75.6592
75.6352
75.6178
75.681
75.6635
75.6361
75.6104
75.5899
75.6579
75.6418
75.6148
75.5881
75.565
75.6356
75.6214
75.5961
75.5701
75.5466
75.6147
75.6025
75.5796
75.5554
75.533
75.5952
75.585
75.5649
75.5431
75.5228
75.5772
75.5689
75.5516
75.5323
75.5141
75.5609
75.5541
75.5395
75.5227
75.5065
75.5461
75.5406
75.5283
75.5138
75.4994
75.5327
75.5283
75.5181
75.5054
75.4926
75.5209
75.5173
75.5087
75.4976
75.4861
75.5104
75.5075
75.5002
75.4904
75.4798
75.5013
75.499
75.4927
75.4838
75.474
75.4936
75.4919
75.4862
75.4781
75.4687
75.4874
75.4861
75.4809
75.4732
75.464
75.4827
75.4815
75.4768
75.4692
75.4602
75.4795
75.4784
75.474
75.4665
75.4572
75.4779
75.4767
75.4725
75.4648
75.4553
75.4776
75.4764
75.4723
75.4643
75.4545
75.4787
75.4776
75.4734
75.4652
75.4549
75.481
75.48
75.4758
75.4674
75.4567
75.4843
75.4834
75.4793
75.4708
75.4598
75.4883
75.4876
75.4837
75.4752
75.4642
75.4928
75.4923
75.4886
75.4805
75.4698
75.4975
75.4972
75.4939
75.4864
75.4764
75.5017
75.5017
75.4991
75.4927
75.4838
75.5046
75.5049
75.5039
75.4991
75.4918
75.5069
75.5079
75.508
75.5055
75.5006
75.51
75.5111
75.5115
75.5116
75.5099
75.5135
75.5143
75.515
75.5177
75.5195
75.5175
75.5168
75.5188
75.5244
75.5297
75.522
75.5214
75.5266
75.5363
75.5459
74.8029
74.8003
74.7965
74.79
74.7829
74.8067
74.8006
74.7942
74.7852
74.7745
74.8039
74.7955
74.7838
74.7681
74.7502
74.7934
74.7824
74.7653
74.7438
74.7213
74.7772
74.7648
74.7447
74.7223
74.7008
74.7585
74.7449
74.7226
74.7006
74.6805
74.7383
74.7236
74.6993
74.6776
74.6565
74.717
74.7016
74.6753
74.6533
74.6299
74.6952
74.6792
74.651
74.6278
74.6019
74.6732
74.657
74.6273
74.602
74.5735
74.6515
74.6357
74.6052
74.5778
74.5476
74.6306
74.6159
74.5856
74.5568
74.5264
74.6109
74.5977
74.5695
74.5412
74.5131
74.5925
74.5812
74.5558
74.5296
74.504
74.5754
74.566
74.5438
74.5201
74.497
74.5595
74.5518
74.5329
74.512
74.4915
74.5448
74.5387
74.5228
74.5045
74.4864
74.5312
74.5264
74.5132
74.4973
74.4813
74.5189
74.5151
74.5041
74.4903
74.4759
74.5077
74.5048
74.4956
74.4834
74.4704
74.4978
74.4955
74.4878
74.4769
74.4649
74.4891
74.4873
74.4807
74.4708
74.4596
74.4818
74.4802
74.4745
74.4654
74.4546
74.4758
74.4745
74.4694
74.4606
74.4501
74.4712
74.47
74.4653
74.4568
74.4463
74.468
74.4669
74.4625
74.4541
74.4433
74.4662
74.4653
74.461
74.4525
74.4414
74.4659
74.465
74.4608
74.4521
74.4406
74.4669
74.4661
74.4619
74.453
74.4411
74.4691
74.4684
74.4643
74.4553
74.443
74.4723
74.4718
74.4679
74.4589
74.4464
74.4762
74.4759
74.4723
74.4635
74.4512
74.4806
74.4805
74.4774
74.4692
74.4576
74.485
74.4852
74.4827
74.4756
74.4652
74.4893
74.4895
74.4877
74.4821
74.4734
74.4922
74.4926
74.4922
74.4885
74.4821
74.4944
74.4955
74.4962
74.4948
74.4912
74.4973
74.499
74.4999
74.5009
74.5006
74.5008
74.5021
74.5035
74.5074
74.5107
74.5048
74.5043
74.5076
74.5149
74.5218
74.5097
74.5093
74.5163
74.529
74.5412
73.7882
73.7866
73.7834
73.7779
73.7714
73.7909
73.7869
73.7819
73.7745
73.765
73.7873
73.7817
73.7718
73.7586
73.742
73.7764
73.7684
73.753
73.7334
73.7087
73.7599
73.7503
73.7309
73.7085
73.6802
73.7409
73.7301
73.7073
73.6847
73.6559
73.7207
73.7091
73.6833
73.6599
73.631
73.6998
73.6877
73.6597
73.6343
73.6065
73.6784
73.6662
73.6366
73.6089
73.5806
73.657
73.6449
73.6144
73.5841
73.553
73.636
73.6245
73.5941
73.5619
73.5283
73.6157
73.6052
73.5759
73.5434
73.5085
73.5967
73.5876
73.5608
73.53
73.4982
73.5788
73.5714
73.5477
73.5197
73.4911
73.5622
73.5564
73.5361
73.5112
73.4857
73.5468
73.5424
73.5254
73.5037
73.4813
73.5324
73.5293
73.5153
73.4966
73.477
73.5191
73.5171
73.5057
73.4895
73.4722
73.507
73.5057
73.4965
73.4825
73.4671
73.4959
73.4952
73.4878
73.4755
73.4617
73.486
73.4857
73.4796
73.4688
73.456
73.4774
73.4773
73.4722
73.4624
73.4504
73.47
73.4701
73.4657
73.4566
73.445
73.4639
73.4641
73.4601
73.4514
73.44
73.4593
73.4594
73.4557
73.4472
73.4357
73.456
73.4561
73.4525
73.444
73.4323
73.4542
73.4542
73.4506
73.442
73.4298
73.4538
73.4537
73.4501
73.4413
73.4286
73.4547
73.4546
73.451
73.4419
73.4287
73.4569
73.4568
73.4532
73.444
73.4303
73.4601
73.4601
73.4565
73.4474
73.4337
73.464
73.4641
73.4608
73.452
73.4386
73.4684
73.4686
73.4657
73.4578
73.4454
73.4725
73.4729
73.4707
73.4641
73.4535
73.4758
73.4765
73.4754
73.4705
73.4622
73.4785
73.4797
73.4796
73.4768
73.4712
73.4813
73.483
73.4835
73.4829
73.4802
73.4848
73.4867
73.4872
73.4886
73.4891
73.489
73.4894
73.4908
73.4943
73.4976
73.4931
73.492
73.4949
73.5008
73.507
73.4972
73.4965
73.5011
73.5107
73.5202
72.7751
72.7744
72.7715
72.7668
72.7612
72.778
72.7759
72.7708
72.7641
72.7552
72.7742
72.7709
72.7612
72.7491
72.7334
72.7638
72.7584
72.7425
72.7232
72.6978
72.7482
72.7413
72.7205
72.6966
72.663
72.7301
72.7222
72.6982
72.6731
72.6363
72.7107
72.7021
72.6761
72.6503
72.613
72.6905
72.6816
72.6542
72.6277
72.5917
72.6698
72.6609
72.6326
72.6049
72.5696
72.6488
72.6401
72.6115
72.5821
72.5463
72.628
72.6199
72.5916
72.5607
72.5244
72.6077
72.6006
72.5735
72.5413
72.5037
72.5885
72.5829
72.5583
72.5281
72.495
72.5705
72.5664
72.545
72.5177
72.4887
72.5536
72.551
72.5329
72.5089
72.4835
72.5378
72.5366
72.5216
72.501
72.4788
72.5231
72.523
72.5109
72.4932
72.4738
72.5095
72.5102
72.5005
72.4854
72.4683
72.497
72.4983
72.4906
72.4776
72.4624
72.4857
72.4873
72.4811
72.4699
72.4561
72.4755
72.4773
72.4722
72.4624
72.4496
72.4666
72.4684
72.4641
72.4552
72.4431
72.459
72.4606
72.4569
72.4486
72.4368
72.4527
72.4541
72.4507
72.4427
72.4309
72.4478
72.449
72.4457
72.4377
72.4257
72.4443
72.4452
72.4419
72.4338
72.4214
72.4423
72.4429
72.4395
72.4312
72.4182
72.4417
72.442
72.4386
72.4299
72.4164
72.4425
72.4426
72.439
72.4301
72.416
72.4445
72.4444
72.4409
72.4318
72.4172
72.4475
72.4473
72.4439
72.435
72.4204
72.4511
72.451
72.4478
72.4394
72.4252
72.4549
72.4551
72.4524
72.4449
72.4322
72.4588
72.4594
72.4572
72.4511
72.4404
72.4624
72.4635
72.4616
72.4574
72.4492
72.4658
72.4667
72.4655
72.4634
72.458
72.4691
72.4696
72.4698
72.4692
72.4666
72.473
72.4733
72.4739
72.4745
72.4748
72.477
72.4769
72.478
72.4802
72.4822
72.4808
72.4804
72.4822
72.4861
72.4902
72.4837
72.484
72.4872
72.4931
72.499
-7.91227
-7.9122
-7.91191
-7.91148
-7.91213
-7.91209
-7.9116
-7.91087
-7.912
-7.9119
-7.91114
-7.91013
-7.91184
-7.91162
-7.91051
-7.90926
-7.90882
-7.9119
-7.91154
-7.91026
-7.90901
-7.90884
-7.91222
-7.91173
-7.91031
-7.90904
-7.90901
-7.91306
-7.91249
-7.91104
-7.90982
-7.91002
-7.91447
-7.91385
-7.91238
-7.9112
-7.91155
-7.91648
-7.91584
-7.91437
-7.9132
-7.91362
-7.91912
-7.9185
-7.91707
-7.91591
-7.9164
-7.9223
-7.92172
-7.92034
-7.91917
-7.91959
-7.92594
-7.92546
-7.92422
-7.92324
-7.92405
-7.92976
-7.92937
-7.92811
-7.92694
-7.92696
-7.93359
-7.93328
-7.93199
-7.93064
-7.92994
-7.93729
-7.93704
-7.93576
-7.93433
-7.93315
-7.94076
-7.94056
-7.93931
-7.93784
-7.93642
-7.94396
-7.94379
-7.94259
-7.94109
-7.93955
-7.94689
-7.94673
-7.9456
-7.94404
-7.94243
-7.94957
-7.94942
-7.94833
-7.9467
-7.94503
-7.95205
-7.95189
-7.95082
-7.94915
-7.94742
-7.95438
-7.95422
-7.95317
-7.95147
-7.94966
-7.95662
-7.95648
-7.95546
-7.95376
-7.95186
-7.95883
-7.95871
-7.95773
-7.95606
-7.9541
-7.96105
-7.96096
-7.96005
-7.95843
-7.95644
-7.96332
-7.96327
-7.96244
-7.96089
-7.95888
-7.96565
-7.96565
-7.96492
-7.96346
-7.96147
-7.96807
-7.96811
-7.96749
-7.96615
-7.96424
-7.97056
-7.97066
-7.97015
-7.96896
-7.96718
-7.9731
-7.97325
-7.97288
-7.97187
-7.97029
-7.97567
-7.97587
-7.97563
-7.97483
-7.97356
-7.9782
-7.97845
-7.97835
-7.97777
-7.97693
-7.98063
-7.98092
-7.98096
-7.98062
-7.9803
-7.98286
-7.98318
-7.98336
-7.98327
-7.98341
-7.98478
-7.98512
-7.98543
-7.98558
-7.98609
-7.98624
-7.98657
-7.98702
-7.98741
-7.98819
-7.98711
-7.9874
-7.98796
-7.98861
-7.98962
-7.98724
-7.98741
-7.98799
-7.9888
-7.99001
-7.98662
-7.98655
-7.987
-7.98774
-7.98908
-7.98548
-7.98491
-7.98497
-7.98533
-7.98648
-7.9843
-7.98353
-7.98309
-7.98302
-7.98393
-7.98292
-7.98178
-7.98073
-7.98046
-7.98133
-8.92254
-8.92256
-8.92242
-8.92206
-8.92251
-8.92259
-8.92231
-8.9219
-8.92257
-8.92262
-8.92221
-8.9217
-8.92259
-8.92256
-8.92197
-8.92121
-8.92278
-8.92268
-8.92205
-8.92129
-8.92108
-8.92324
-8.92309
-8.92239
-8.92159
-8.92138
-8.92417
-8.92399
-8.92331
-8.92258
-8.92252
-8.92565
-8.92546
-8.9248
-8.92411
-8.92417
-8.92772
-8.92753
-8.9269
-8.92623
-8.92636
-8.93042
-8.93026
-8.92968
-8.92905
-8.92931
-8.93365
-8.93353
-8.933
-8.93236
-8.9326
-8.93732
-8.93729
-8.93692
-8.93655
-8.93734
-8.94114
-8.94114
-8.94077
-8.94019
-8.94027
-8.94493
-8.94499
-8.94459
-8.94382
-8.94336
-8.94856
-8.94867
-8.94823
-8.94732
-8.94651
-8.95196
-8.95209
-8.9516
-8.9506
-8.94955
-8.95508
-8.95519
-8.95464
-8.95357
-8.95236
-8.95792
-8.958
-8.95737
-8.95625
-8.9549
-8.96053
-8.96055
-8.95985
-8.95866
-8.95717
-8.96294
-8.96293
-8.96216
-8.96089
-8.9593
-8.96522
-8.96518
-8.96438
-8.96302
-8.96136
-8.96742
-8.96738
-8.96659
-8.96517
-8.96345
-8.9696
-8.96959
-8.96884
-8.9674
-8.96567
-8.9718
-8.97183
-8.97116
-8.96976
-8.96802
-8.97406
-8.97415
-8.97358
-8.97226
-8.97052
-8.97638
-8.97654
-8.97611
-8.97491
-8.97321
-8.97879
-8.97903
-8.97874
-8.97771
-8.9761
-8.98128
-8.98159
-8.98147
-8.98063
-8.97919
-8.98382
-8.9842
-8.98427
-8.98365
-8.98244
-8.98638
-8.98682
-8.98707
-8.9867
-8.98584
-8.98892
-8.98941
-8.98984
-8.98973
-8.98931
-8.99137
-8.99189
-8.9925
-8.99269
-8.99277
-8.99364
-8.99417
-8.99492
-8.99548
-8.99605
-8.99561
-8.99613
-8.99707
-8.99798
-8.99897
-8.99716
-8.99763
-8.99879
-9.00008
-9.00136
-8.99812
-8.99854
-8.99984
-9.00142
-9.00312
-8.99832
-8.99861
-8.99988
-9.00156
-9.00354
-8.99769
-8.99774
-8.99871
-9.00018
-9.00217
-8.99646
-8.99589
-8.99623
-8.99706
-8.99868
-8.99516
-8.99371
-8.9931
-8.99318
-8.99452
-8.99291
-8.98992
-8.98781
-8.98734
-8.98861
-9.93297
-9.93298
-9.93277
-9.9326
-9.93302
-9.93303
-9.93274
-9.93254
-9.93321
-9.93313
-9.93281
-9.9326
-9.9334
-9.93326
-9.93283
-9.93238
-9.93379
-9.93362
-9.93319
-9.93275
-9.93444
-9.93425
-9.93377
-9.93324
-9.93305
-9.93555
-9.93536
-9.93489
-9.93439
-9.9343
-9.9372
-9.93702
-9.93656
-9.93605
-9.93602
-9.93945
-9.93929
-9.93885
-9.93831
-9.93828
-9.94234
-9.94223
-9.94185
-9.94132
-9.94135
-9.94575
-9.94571
-9.94537
-9.94481
-9.94471
-9.94959
-9.94967
-9.94954
-9.94932
-9.94983
-9.95351
-9.95365
-9.95352
-9.95319
-9.95307
-9.95734
-9.95753
-9.9574
-9.95702
-9.95659
-9.96092
-9.96115
-9.961
-9.9605
-9.95985
-9.96419
-9.96443
-9.96425
-9.9636
-9.96281
-9.96717
-9.96739
-9.9671
-9.9663
-9.96538
-9.96988
-9.97003
-9.96961
-9.96865
-9.9676
-9.97237
-9.97243
-9.97186
-9.97076
-9.96956
-9.97469
-9.97468
-9.97397
-9.97276
-9.97141
-9.97691
-9.97684
-9.97602
-9.97476
-9.97326
-9.97907
-9.97898
-9.97813
-9.97685
-9.97524
-9.98123
-9.98116
-9.98036
-9.97907
-9.97743
-9.98342
-9.9834
-9.98271
-9.98145
-9.97984
-9.98567
-9.98573
-9.98519
-9.984
-9.98242
-9.988
-9.98816
-9.9878
-9.98673
-9.98518
-9.9904
-9.99067
-9.99052
-9.98959
-9.98814
-9.99286
-9.99324
-9.99329
-9.99255
-9.99126
-9.99537
-9.99584
-9.99608
-9.99558
-9.99454
-9.99789
-9.99843
-9.9988
-9.99859
-9.99795
-10.0004
-10.001
-10.0015
-10.0016
-10.0014
-10.0028
-10.0034
-10.004
-10.0045
-10.0048
-10.0051
-10.0057
-10.0064
-10.0074
-10.0082
-10.0073
-10.0079
-10.0088
-10.0101
-10.0114
-10.0091
-10.0096
-10.011
-10.0127
-10.0143
-10.0104
-10.0109
-10.0128
-10.015
-10.017
-10.0108
-10.0114
-10.0137
-10.0162
-10.0185
-10.0103
-10.0107
-10.0129
-10.0154
-10.0179
-10.0087
-10.0085
-10.0097
-10.0116
-10.014
-10.0072
-10.0053
-10.0051
-10.0061
-10.0084
-10.0045
-9.9997
-9.99765
-9.99794
-10.0006
-10.9435
-10.9435
-10.9432
-10.9431
-10.9436
-10.9434
-10.9432
-10.9431
-10.9438
-10.9436
-10.9434
-10.9433
-10.9442
-10.9439
-10.9436
-10.9433
-10.9448
-10.9445
-10.9442
-10.9439
-10.9456
-10.9454
-10.945
-10.9445
-10.9469
-10.9467
-10.9463
-10.9459
-10.9458
-10.9488
-10.9486
-10.9482
-10.9477
-10.9476
-10.9513
-10.9511
-10.9507
-10.9501
-10.95
-10.9545
-10.9544
-10.954
-10.9534
-10.9532
-10.9581
-10.9581
-10.9578
-10.9571
-10.9567
-10.9621
-10.9623
-10.9622
-10.9621
-10.9623
-10.9662
-10.9664
-10.9664
-10.9662
-10.9659
-10.97
-10.9703
-10.9703
-10.9702
-10.9698
-10.9735
-10.9738
-10.9738
-10.9735
-10.973
-10.9766
-10.9769
-10.9769
-10.9764
-10.9758
-10.9795
-10.9797
-10.9795
-10.9788
-10.9781
-10.982
-10.9821
-10.9818
-10.9809
-10.9801
-10.9844
-10.9844
-10.9838
-10.9828
-10.9818
-10.9867
-10.9865
-10.9858
-10.9846
-10.9834
-10.9889
-10.9886
-10.9878
-10.9865
-10.9852
-10.991
-10.9907
-10.9899
-10.9885
-10.9871
-10.9932
-10.9929
-10.9921
-10.9908
-10.9892
-10.9954
-10.9952
-10.9945
-10.9933
-10.9916
-10.9977
-10.9976
-10.997
-10.9959
-10.9942
-11
-11.0001
-10.9997
-10.9986
-10.997
-11.0024
-11.0026
-11.0023
-11.0014
-11
-11.0048
-11.0051
-11.005
-11.0043
-11.0031
-11.0072
-11.0076
-11.0075
-11.0072
-11.0062
-11.0096
-11.01
-11.01
-11.0101
-11.0094
-11.012
-11.0123
-11.0124
-11.0128
-11.0127
-11.0144
-11.0146
-11.0148
-11.0155
-11.0159
-11.0168
-11.0167
-11.0173
-11.0183
-11.0193
-11.0192
-11.0189
-11.02
-11.0212
-11.0228
-11.0215
-11.0211
-11.023
-11.0244
-11.0266
-11.0235
-11.0234
-11.0262
-11.028
-11.0305
-11.0246
-11.0252
-11.0288
-11.0312
-11.0337
-11.0246
-11.0257
-11.0295
-11.0322
-11.0348
-11.0229
-11.0237
-11.0264
-11.029
-11.0317
-11.0213
-11.0199
-11.021
-11.0229
-11.0258
-11.0182
-11.013
-11.0124
-11.0139
-11.0174
-11.9539
-11.9538
-11.9537
-11.9536
-11.9541
-11.9538
-11.9538
-11.9538
-11.9544
-11.9541
-11.9541
-11.9542
-11.9549
-11.9546
-11.9544
-11.9542
-11.9557
-11.9554
-11.9552
-11.955
-11.9568
-11.9565
-11.9562
-11.9559
-11.9584
-11.9581
-11.9578
-11.9574
-11.9605
-11.9603
-11.9599
-11.9594
-11.9593
-11.9633
-11.9631
-11.9627
-11.962
-11.9616
-11.9667
-11.9666
-11.9663
-11.9656
-11.9651
-11.9706
-11.9707
-11.9703
-11.9696
-11.9687
-11.9748
-11.975
-11.9751
-11.9749
-11.9748
-11.9789
-11.9792
-11.9793
-11.9791
-11.9787
-11.9826
-11.983
-11.9832
-11.9831
-11.9827
-11.986
-11.9863
-11.9865
-11.9863
-11.9858
-11.989
-11.9893
-11.9893
-11.9889
-11.9884
-11.9917
-11.9918
-11.9916
-11.9911
-11.9905
-11.9942
-11.9942
-11.9937
-11.9929
-11.9923
-11.9965
-11.9963
-11.9956
-11.9947
-11.9939
-11.9987
-11.9984
-11.9976
-11.9965
-11.9954
-12.0009
-12.0005
-11.9996
-11.9983
-11.9971
-12.0031
-12.0026
-12.0017
-12.0004
-11.999
-12.0053
-12.0049
-12.0041
-12.0027
-12.0012
-12.0076
-12.0073
-12.0065
-12.0052
-12.0036
-12.0099
-12.0097
-12.0091
-12.0078
-12.0062
-12.0122
-12.0121
-12.0116
-12.0105
-12.0089
-12.0145
-12.0145
-12.0142
-12.0132
-12.0117
-12.0168
-12.0168
-12.0166
-12.0159
-12.0146
-12.0191
-12.019
-12.0189
-12.0185
-12.0176
-12.0214
-12.021
-12.0212
-12.021
-12.0205
-12.0237
-12.0229
-12.0233
-12.0234
-12.0235
-12.026
-12.0246
-12.0255
-12.0258
-12.0267
-12.0285
-12.0264
-12.0278
-12.0285
-12.0303
-12.0313
-12.0288
-12.0307
-12.0319
-12.0344
-12.0343
-12.032
-12.0344
-12.0361
-12.0391
-12.0372
-12.0361
-12.0391
-12.0413
-12.0445
-12.0394
-12.0401
-12.0439
-12.0465
-12.0495
-12.0404
-12.0425
-12.0469
-12.05
-12.0527
-12.0392
-12.0416
-12.0456
-12.0487
-12.0513
-12.0376
-12.0379
-12.0403
-12.0429
-12.0457
-12.0348
-12.0312
-12.0323
-12.0346
-12.0382
-12.9643
-12.9642
-12.9642
-12.9641
-12.9645
-12.9643
-12.9643
-12.9645
-12.965
-12.9647
-12.9648
-12.965
-12.9657
-12.9654
-12.9653
-12.9651
-12.9667
-12.9664
-12.9663
-12.9661
-12.968
-12.9677
-12.9675
-12.9673
-12.9698
-12.9696
-12.9693
-12.969
-12.9723
-12.9721
-12.9717
-12.9712
-12.9753
-12.9752
-12.9747
-12.974
-12.9733
-12.979
-12.979
-12.9786
-12.9778
-12.977
-12.9831
-12.9832
-12.9829
-12.9821
-12.9808
-12.9874
-12.9877
-12.9879
-12.9876
-12.9871
-12.9914
-12.9919
-12.9921
-12.9918
-12.9911
-12.9951
-12.9956
-12.9959
-12.9957
-12.9952
-12.9984
-12.9987
-12.9989
-12.9986
-12.9982
-13.0013
-13.0014
-13.0014
-13.0011
-13.0007
-13.0039
-13.0038
-13.0036
-13.0031
-13.0027
-13.0063
-13.006
-13.0056
-13.0049
-13.0044
-13.0085
-13.0082
-13.0075
-13.0066
-13.006
-13.0108
-13.0104
-13.0095
-13.0085
-13.0076
-13.013
-13.0126
-13.0116
-13.0104
-13.0093
-13.0153
-13.0148
-13.0139
-13.0125
-13.0112
-13.0176
-13.0171
-13.0163
-13.0149
-13.0134
-13.02
-13.0194
-13.0188
-13.0173
-13.0157
-13.0223
-13.0218
-13.0213
-13.0199
-13.0182
-13.0246
-13.0241
-13.0238
-13.0224
-13.0209
-13.0268
-13.0262
-13.0262
-13.0249
-13.0236
-13.029
-13.0282
-13.0284
-13.0273
-13.0263
-13.0312
-13.0299
-13.0304
-13.0296
-13.029
-13.0333
-13.0314
-13.0322
-13.0318
-13.0318
-13.0356
-13.0327
-13.034
-13.0341
-13.0349
-13.0381
-13.0345
-13.0361
-13.0366
-13.0383
-13.041
-13.0371
-13.0386
-13.0399
-13.0423
-13.0443
-13.0405
-13.042
-13.044
-13.0473
-13.0479
-13.0449
-13.0465
-13.0493
-13.053
-13.0514
-13.05
-13.0521
-13.0557
-13.0596
-13.0546
-13.0553
-13.0584
-13.0624
-13.0662
-13.0568
-13.0595
-13.0637
-13.0679
-13.0711
-13.0567
-13.0606
-13.0654
-13.0692
-13.0716
-13.0554
-13.0574
-13.0608
-13.064
-13.0666
-13.0529
-13.0516
-13.0541
-13.057
-13.0602
-13.9747
-13.9746
-13.9746
-13.9745
-13.975
-13.9749
-13.9749
-13.9752
-13.9756
-13.9754
-13.9755
-13.9759
-13.9764
-13.9762
-13.9761
-13.9761
-13.9777
-13.9774
-13.9773
-13.9773
-13.9793
-13.979
-13.9788
-13.9785
-13.9814
-13.9811
-13.9808
-13.9805
-13.9841
-13.9839
-13.9835
-13.9829
-13.9875
-13.9873
-13.9868
-13.9859
-13.9914
-13.9914
-13.991
-13.99
-13.9888
-13.9956
-13.9957
-13.9954
-13.9944
-13.9927
-14
-14.0003
-14.0005
-14
-13.9991
-14.0039
-14.0043
-14.0045
-14.0041
-14.0031
-14.0076
-14.0079
-14.0081
-14.0078
-14.0072
-14.0107
-14.0109
-14.0109
-14.0106
-14.0101
-14.0135
-14.0135
-14.0134
-14.013
-14.0127
-14.0161
-14.0158
-14.0155
-14.015
-14.0147
-14.0185
-14.018
-14.0175
-14.0169
-14.0166
-14.0208
-14.0202
-14.0195
-14.0187
-14.0183
-14.0232
-14.0224
-14.0217
-14.0207
-14.02
-14.0255
-14.0247
-14.0239
-14.0227
-14.0218
-14.0279
-14.0271
-14.0263
-14.0249
-14.0238
-14.0303
-14.0295
-14.0287
-14.0272
-14.0259
-14.0327
-14.0318
-14.0312
-14.0297
-14.0282
-14.0351
-14.0341
-14.0337
-14.0321
-14.0307
-14.0374
-14.0361
-14.036
-14.0345
-14.0332
-14.0396
-14.038
-14.0381
-14.0368
-14.0358
-14.0417
-14.0397
-14.04
-14.0391
-14.0384
-14.0439
-14.0412
-14.0418
-14.0413
-14.0412
-14.0462
-14.0429
-14.0436
-14.0436
-14.0442
-14.0487
-14.045
-14.0456
-14.0462
-14.0477
-14.0514
-14.0475
-14.048
-14.0494
-14.0517
-14.0544
-14.0508
-14.051
-14.0534
-14.0566
-14.0576
-14.0548
-14.0551
-14.0584
-14.0624
-14.0608
-14.0594
-14.0603
-14.0646
-14.0691
-14.0645
-14.0646
-14.0667
-14.0719
-14.0766
-14.0682
-14.0698
-14.0735
-14.0793
-14.0839
-14.0718
-14.0751
-14.0804
-14.0863
-14.09
-14.0736
-14.0771
-14.0822
-14.0875
-14.091
-14.0732
-14.0759
-14.0802
-14.0843
-14.0871
-14.071
-14.0714
-14.0749
-14.0784
-14.0817
-14.9852
-14.9851
-14.985
-14.9848
-14.9855
-14.9855
-14.9855
-14.9857
-14.9862
-14.9861
-14.9863
-14.9867
-14.9873
-14.9871
-14.987
-14.9871
-14.9887
-14.9885
-14.9884
-14.9884
-14.9906
-14.9903
-14.9901
-14.9898
-14.993
-14.9927
-14.9924
-14.9919
-14.996
-14.9958
-14.9953
-14.9946
-14.9997
-14.9995
-14.9988
-14.9978
-15.0038
-15.0037
-15.0032
-15.0021
-15.0081
-15.0082
-15.0078
-15.0064
-15.0042
-15.0124
-15.0128
-15.0128
-15.012
-15.0106
-15.0164
-15.0167
-15.0167
-15.0159
-15.0146
-15.0199
-15.0201
-15.0201
-15.0196
-15.0188
-15.023
-15.0229
-15.0228
-15.0224
-15.0219
-15.0258
-15.0255
-15.0253
-15.0249
-15.0247
-15.0285
-15.0279
-15.0275
-15.027
-15.027
-15.031
-15.0302
-15.0296
-15.0291
-15.0291
-15.0335
-15.0325
-15.0318
-15.0311
-15.031
-15.036
-15.0349
-15.0341
-15.0332
-15.0329
-15.0385
-15.0373
-15.0365
-15.0354
-15.0348
-15.041
-15.0397
-15.0389
-15.0377
-15.0369
-15.0435
-15.0422
-15.0414
-15.04
-15.039
-15.046
-15.0445
-15.0438
-15.0424
-15.0414
-15.0484
-15.0467
-15.0461
-15.0448
-15.0438
-15.0508
-15.0488
-15.0483
-15.0472
-15.0464
-15.053
-15.0508
-15.0504
-15.0495
-15.049
-15.0553
-15.0527
-15.0524
-15.0519
-15.0519
-15.0576
-15.0546
-15.0543
-15.0544
-15.055
-15.0599
-15.0567
-15.0563
-15.0571
-15.0586
-15.0623
-15.0592
-15.0587
-15.0604
-15.0627
-15.0647
-15.0621
-15.0616
-15.0643
-15.0677
-15.0672
-15.0655
-15.0653
-15.0692
-15.0734
-15.0699
-15.0692
-15.07
-15.0751
-15.0801
-15.0733
-15.0735
-15.0758
-15.0819
-15.0874
-15.0776
-15.0785
-15.0825
-15.0897
-15.0954
-15.0827
-15.0841
-15.0895
-15.0972
-15.1027
-15.0878
-15.0899
-15.0963
-15.1042
-15.1093
-15.0905
-15.0918
-15.0979
-15.1049
-15.1095
-15.0914
-15.0941
-15.0988
-15.1036
-15.1067
-15.0892
-15.0905
-15.0944
-15.0986
-15.102
-15.9956
-15.9955
-15.9953
-15.9949
-15.996
-15.9961
-15.9961
-15.9962
-15.9969
-15.9968
-15.997
-15.9974
-15.9982
-15.998
-15.9979
-15.9979
-15.9998
-15.9996
-15.9995
-15.9994
-16.002
-16.0017
-16.0014
-16.001
-16.0047
-16.0043
-16.0039
-16.0033
-16.008
-16.0077
-16.0071
-16.0061
-16.0118
-16.0115
-16.0108
-16.0094
-16.0161
-16.016
-16.0153
-16.0138
-16.0205
-16.0205
-16.0198
-16.018
-16.0249
-16.0251
-16.0248
-16.0235
-16.0216
-16.0288
-16.0288
-16.0285
-16.0274
-16.0258
-16.0323
-16.0322
-16.0319
-16.0312
-16.0303
-16.0355
-16.035
-16.0347
-16.0341
-16.0338
-16.0384
-16.0377
-16.0372
-16.0369
-16.037
-16.0412
-16.0402
-16.0397
-16.0394
-16.0397
-16.0439
-16.0427
-16.0421
-16.0418
-16.0422
-16.0466
-16.0453
-16.0445
-16.0441
-16.0445
-16.0493
-16.0478
-16.0469
-16.0464
-16.0466
-16.052
-16.0504
-16.0494
-16.0487
-16.0487
-16.0546
-16.053
-16.0519
-16.0511
-16.0509
-16.0572
-16.0555
-16.0544
-16.0536
-16.0532
-16.0597
-16.0579
-16.0568
-16.056
-16.0556
-16.0622
-16.0603
-16.0592
-16.0585
-16.0581
-16.0645
-16.0625
-16.0615
-16.061
-16.0609
-16.0669
-16.0647
-16.0636
-16.0636
-16.0638
-16.0691
-16.0668
-16.0658
-16.0663
-16.0671
-16.0713
-16.069
-16.068
-16.0692
-16.0709
-16.0735
-16.0714
-16.0706
-16.0727
-16.0752
-16.0755
-16.074
-16.0735
-16.0768
-16.0803
-16.0775
-16.0768
-16.0772
-16.0817
-16.0862
-16.08
-16.08
-16.0816
-16.0875
-16.0929
-16.0836
-16.0839
-16.087
-16.0941
-16.1003
-16.0883
-16.0888
-16.0932
-16.1014
-16.1079
-16.0936
-16.0945
-16.1001
-16.109
-16.1157
-16.099
-16.1002
-16.1068
-16.1162
-16.1227
-16.1041
-16.105
-16.1122
-16.1217
-16.1282
-16.1064
-16.1074
-16.115
-16.1238
-16.129
-16.1075
-16.1056
-16.1104
-16.1187
-16.1241
-16.1064
-16.107
-16.1112
-16.1168
-16.1212
-17.0059
-17.0059
-17.0054
-17.0048
-17.0066
-17.0066
-17.0065
-17.0065
-17.0076
-17.0075
-17.0077
-17.0081
-17.0091
-17.0089
-17.0088
-17.0087
-17.011
-17.0107
-17.0105
-17.0104
-17.0134
-17.013
-17.0126
-17.0121
-17.0163
-17.0159
-17.0154
-17.0145
-17.0199
-17.0194
-17.0187
-17.0175
-17.024
-17.0235
-17.0226
-17.0209
-17.0283
-17.0281
-17.0272
-17.0253
-17.0327
-17.0327
-17.0317
-17.0293
-17.0372
-17.0372
-17.0365
-17.0348
-17.0411
-17.0409
-17.0402
-17.0387
-17.0369
-17.0448
-17.0443
-17.0437
-17.0429
-17.0421
-17.0481
-17.0473
-17.0467
-17.0462
-17.0461
-17.0513
-17.0502
-17.0495
-17.0494
-17.05
-17.0543
-17.053
-17.0522
-17.0523
-17.0532
-17.0572
-17.0558
-17.0549
-17.0551
-17.0562
-17.0601
-17.0585
-17.0576
-17.0578
-17.0589
-17.0629
-17.0613
-17.0603
-17.0604
-17.0614
-17.0656
-17.064
-17.0629
-17.063
-17.0638
-17.0683
-17.0667
-17.0655
-17.0656
-17.0662
-17.071
-17.0694
-17.0681
-17.0682
-17.0687
-17.0736
-17.0719
-17.0707
-17.0708
-17.0713
-17.076
-17.0744
-17.0732
-17.0735
-17.0741
-17.0784
-17.0768
-17.0756
-17.0762
-17.0772
-17.0806
-17.0791
-17.078
-17.0791
-17.0806
-17.0827
-17.0814
-17.0805
-17.0824
-17.0844
-17.0846
-17.0837
-17.0832
-17.0861
-17.089
-17.0865
-17.086
-17.0864
-17.0904
-17.0943
-17.0887
-17.0887
-17.0901
-17.0955
-17.1004
-17.0917
-17.0919
-17.0947
-17.1015
-17.1074
-17.0958
-17.0962
-17.1002
-17.1083
-17.115
-17.1007
-17.1013
-17.1065
-17.1157
-17.123
-17.1061
-17.107
-17.1132
-17.1233
-17.1308
-17.1116
-17.1129
-17.12
-17.1307
-17.1382
-17.1168
-17.118
-17.1258
-17.137
-17.1444
-17.1206
-17.1214
-17.1295
-17.1409
-17.1484
-17.1221
-17.1228
-17.131
-17.1425
-17.1492
-17.1205
-17.1179
-17.1238
-17.1341
-17.1422
-17.1226
-17.1242
-17.1289
-17.1352
-17.1407
-18.0161
-18.0161
-18.0153
-18.0144
-18.017
-18.017
-18.0168
-18.0167
-18.0183
-18.0181
-18.0183
-18.0186
-18.02
-18.0197
-18.0196
-18.0194
-18.0222
-18.0218
-18.0215
-18.0213
-18.0248
-18.0243
-18.0238
-18.0231
-18.028
-18.0274
-18.0267
-18.0256
-18.0318
-18.0312
-18.0302
-18.0286
-18.036
-18.0354
-18.0342
-18.032
-18.0404
-18.0401
-18.0388
-18.0364
-18.0449
-18.0447
-18.0432
-18.0403
-18.0495
-18.0493
-18.0481
-18.046
-18.0536
-18.053
-18.0519
-18.0503
-18.0574
-18.0566
-18.0557
-18.0549
-18.0544
-18.061
-18.0599
-18.059
-18.0589
-18.0593
-18.0644
-18.0631
-18.0623
-18.0627
-18.0639
-18.0676
-18.0662
-18.0654
-18.0662
-18.0679
-18.0707
-18.0693
-18.0685
-18.0695
-18.0715
-18.0737
-18.0723
-18.0715
-18.0727
-18.0748
-18.0766
-18.0752
-18.0744
-18.0757
-18.0777
-18.0794
-18.0781
-18.0773
-18.0785
-18.0805
-18.0821
-18.0809
-18.0801
-18.0813
-18.0831
-18.0847
-18.0836
-18.0828
-18.0841
-18.0859
-18.0872
-18.0862
-18.0855
-18.087
-18.0887
-18.0896
-18.0887
-18.0881
-18.0899
-18.0918
-18.0919
-18.0911
-18.0908
-18.093
-18.0953
-18.0941
-18.0935
-18.0936
-18.0964
-18.0992
-18.0963
-18.0959
-18.0966
-18.1003
-18.1038
-18.0987
-18.0986
-18.1
-18.1048
-18.1091
-18.1017
-18.1017
-18.1041
-18.1102
-18.1155
-18.1053
-18.1056
-18.109
-18.1164
-18.1227
-18.1096
-18.1102
-18.1148
-18.1237
-18.1308
-18.1146
-18.1156
-18.1214
-18.1316
-18.1393
-18.1202
-18.1215
-18.1285
-18.1398
-18.148
-18.1259
-18.1276
-18.1357
-18.1478
-18.156
-18.1313
-18.1334
-18.1424
-18.155
-18.1632
-18.1358
-18.1379
-18.1476
-18.1606
-18.1687
-18.1384
-18.1401
-18.1501
-18.1634
-18.1718
-18.139
-18.1399
-18.1493
-18.1624
-18.1714
-18.1359
-18.1373
-18.1452
-18.1561
-18.1648
-18.1389
-18.1391
-18.1436
-18.1533
-18.1608
-19.0263
-19.0261
-19.0251
-19.0238
-19.0274
-19.0274
-19.027
-19.0266
-19.0289
-19.0286
-19.0287
-19.0289
-19.0309
-19.0304
-19.0302
-19.0299
-19.0333
-19.0327
-19.0324
-19.032
-19.0362
-19.0355
-19.0348