/*--------------------------------*- C++ -*----------------------------------*\
| =========                 |                                                 |
| \\      /  F ield         | OpenFOAM: The Open Source CFD Toolbox           |
|  \\    /   O peration     | Version:  2.3.1                                 |
|   \\  /    A nd           | Web:      www.OpenFOAM.org                      |
|    \\/     M anipulation  |                                                 |
\*---------------------------------------------------------------------------*/
FoamFile
{
    version     2.0;
    format      ascii;
    class       volScalarField;
    location    "600";
    object      p_rgh;
}
// * * * * * * * * * * * * * * * * * * * * * * * * * * * * * * * * * * * * * //

dimensions      [0 2 -2 0 0 0 0];

internalField   nonuniform List<scalar> 
6852
(
78.3539
78.3511
78.3481
78.3452
78.3451
78.3581
78.3531
78.3474
78.3417
78.3387
78.3601
78.3526
78.3436
78.3344
78.3284
78.3586
78.3488
78.3365
78.3246
78.3192
78.3528
78.3414
78.3273
78.3146
78.311
78.3434
78.3308
78.3159
78.3039
78.3036
78.3293
78.3158
78.3
78.2879
78.2886
78.3108
78.2969
78.2805
78.2677
78.2677
78.2884
78.2746
78.2579
78.2442
78.2425
78.263
78.2498
78.233
78.2182
78.2141
78.2358
78.2235
78.2071
78.1916
78.1848
78.208
78.1968
78.1812
78.1651
78.1558
78.1808
78.1708
78.1564
78.1407
78.1298
78.1551
78.1464
78.1336
78.1186
78.1072
78.1316
78.1241
78.1128
78.0991
78.0879
78.1104
78.104
78.0943
78.082
78.0713
78.0917
78.0861
78.0778
78.0669
78.0571
78.0753
78.0705
78.0633
78.0537
78.0447
78.0609
78.0569
78.0506
78.0421
78.0338
78.0486
78.0451
78.0395
78.0319
78.0242
78.0381
78.035
78.03
78.023
78.0157
78.0292
78.0263
78.0218
78.0153
78.0083
78.022
78.0192
78.015
78.0088
78.002
78.0162
78.0137
78.0096
78.0035
77.9966
78.012
78.0096
78.0056
77.9994
77.9923
78.0092
78.007
78.003
77.9967
77.9891
78.0078
78.0057
78.0017
77.9952
77.9873
78.0078
78.0058
78.0018
77.995
77.9866
78.0091
78.0071
78.0032
77.9962
77.9873
78.0116
78.0097
78.0058
77.9986
77.9894
78.015
78.0133
78.0091
78.002
77.9926
78.0189
78.0174
78.0131
78.0062
77.9968
78.0233
78.0222
78.0178
78.0108
78.0018
78.0276
78.0268
78.0228
78.0159
78.0073
78.0315
78.0311
78.0278
78.0217
78.0136
78.0351
78.0352
78.0326
78.0277
78.0205
78.0387
78.0389
78.037
78.0336
78.0281
78.0426
78.0426
78.0414
78.0397
78.0365
78.0467
78.0467
78.0463
78.0461
78.0454
78.0506
78.0506
78.0513
78.0529
78.0547
78.0535
78.0539
78.0562
78.0599
78.0637
78.3541
78.3505
78.3468
78.3421
78.3394
78.3608
78.3531
78.346
78.3388
78.3328
78.3623
78.3517
78.34
78.327
78.315
78.359
78.3454
78.3291
78.3113
78.297
78.3509
78.3354
78.3165
78.2973
78.2858
78.34
78.323
78.3029
78.2843
78.2762
78.3257
78.3074
78.2861
78.2673
78.26
78.3078
78.2887
78.2666
78.2473
78.2391
78.2865
78.2674
78.2446
78.2243
78.214
78.2625
78.2439
78.2208
78.1996
78.1864
78.2367
78.2192
78.1964
78.1747
78.1587
78.2102
78.1942
78.1723
78.1506
78.1325
78.1842
78.1699
78.1497
78.1288
78.1108
78.1594
78.1469
78.1288
78.1096
78.0926
78.1365
78.1257
78.1098
78.0925
78.077
78.1157
78.1064
78.0927
78.0773
78.0635
78.097
78.089
78.0773
78.0638
78.0514
78.0805
78.0735
78.0635
78.0518
78.0407
78.0659
78.0598
78.0513
78.041
78.031
78.0532
78.0478
78.0405
78.0313
78.0222
78.0423
78.0375
78.0311
78.0228
78.0144
78.033
78.0287
78.023
78.0154
78.0074
78.0252
78.0215
78.0162
78.0091
78.0014
78.0188
78.0158
78.0107
78.0039
77.9963
78.0139
78.0116
78.0066
77.9998
77.9922
78.0107
78.0087
78.0039
77.9971
77.9892
78.009
78.0072
78.0026
77.9956
77.9873
78.0088
78.0072
78.0026
77.9952
77.9867
78.01
78.0086
78.0039
77.9962
77.9872
78.0124
78.0113
78.0065
77.9985
77.9891
78.0159
78.015
78.0103
78.002
77.9922
78.0201
78.0195
78.015
78.0065
77.9964
78.0249
78.0244
78.0203
78.0119
78.0017
78.029
78.0288
78.0255
78.018
78.008
78.0325
78.0327
78.0302
78.0242
78.0153
78.0356
78.0363
78.0345
78.0299
78.0229
78.0386
78.0394
78.0381
78.0352
78.0302
78.0421
78.0423
78.0413
78.0402
78.0376
78.046
78.0456
78.0454
78.0458
78.0457
78.0501
78.0493
78.0496
78.0518
78.0546
78.0537
78.0532
78.0556
78.0606
78.0659
78.3513
78.3479
78.3439
78.3376
78.3315
78.3573
78.3495
78.3419
78.3327
78.323
78.3563
78.3457
78.3326
78.3164
78.2997
78.3481
78.3345
78.316
78.2945
78.2754
78.3345
78.3195
78.2989
78.2778
78.2621
78.3184
78.3023
78.2807
78.2609
78.2482
78.3003
78.2832
78.2604
78.241
78.2291
78.2805
78.2626
78.2385
78.2183
78.2058
78.2591
78.2408
78.2153
78.1934
78.1789
78.2365
78.2183
78.1915
78.1675
78.1501
78.2133
78.1959
78.1684
78.1427
78.1222
78.1902
78.1742
78.1471
78.1205
78.0973
78.168
78.1537
78.1284
78.1025
78.0789
78.147
78.1348
78.1119
78.0878
78.0653
78.1275
78.1173
78.0972
78.0754
78.0551
78.1096
78.1012
78.0839
78.0647
78.0465
78.0932
78.0864
78.0718
78.055
78.0388
78.0784
78.0729
78.0607
78.0461
78.0317
78.0651
78.0606
78.0504
78.0378
78.0249
78.0532
78.0496
78.041
78.03
78.0184
78.0428
78.0398
78.0326
78.0227
78.0122
78.0336
78.0313
78.0251
78.0162
78.0063
78.0259
78.0242
78.0186
78.0104
78.001
78.0197
78.0184
78.0132
78.0055
77.9963
78.015
78.0139
78.0091
78.0016
77.9925
78.0119
78.0107
78.0064
77.9988
77.9896
78.0102
78.009
78.0048
77.9971
77.9877
78.01
78.0088
78.0046
77.9967
77.9868
78.0111
78.0099
78.0057
77.9975
77.9873
78.0133
78.0123
78.0081
77.9997
77.989
78.0166
78.0157
78.0116
78.0031
77.9921
78.0206
78.0199
78.016
78.0075
77.9965
78.0251
78.0247
78.0209
78.0128
78.0021
78.0298
78.0295
78.0262
78.0187
78.0087
78.034
78.034
78.0315
78.025
78.0161
78.037
78.0373
78.0362
78.0314
78.0241
78.0393
78.0402
78.0403
78.0378
78.033
78.0423
78.0434
78.0438
78.0439
78.0422
78.0459
78.0466
78.0474
78.05
78.0518
78.0498
78.0491
78.0511
78.0568
78.062
78.0543
78.0537
78.0589
78.0686
78.0783
78.3482
78.3455
78.3418
78.3353
78.3281
78.352
78.3459
78.3394
78.3304
78.3198
78.3491
78.3408
78.329
78.3134
78.2954
78.3386
78.3276
78.3106
78.2891
78.2666
78.3225
78.3101
78.2899
78.2675
78.2461
78.3038
78.2902
78.2678
78.2459
78.2258
78.2836
78.2689
78.2446
78.2228
78.2018
78.2623
78.2468
78.2206
78.1985
78.1752
78.2405
78.2244
78.1963
78.173
78.1472
78.2185
78.2023
78.1726
78.1473
78.1187
78.1968
78.181
78.1504
78.123
78.0929
78.1759
78.1611
78.1309
78.102
78.0717
78.1562
78.143
78.1147
78.0865
78.0583
78.1377
78.1265
78.1011
78.0748
78.0492
78.1206
78.1112
78.0891
78.0654
78.0423
78.1047
78.0971
78.0782
78.0573
78.0368
78.09
78.0839
78.068
78.0498
78.0317
78.0765
78.0717
78.0584
78.0426
78.0265
78.0642
78.0604
78.0494
78.0355
78.0212
78.053
78.05
78.0409
78.0287
78.0157
78.0431
78.0407
78.033
78.0222
78.0102
78.0344
78.0325
78.026
78.0161
78.0048
78.027
78.0255
78.0198
78.0106
77.9998
78.021
78.0197
78.0146
78.0059
77.9953
78.0164
78.0153
78.0106
78.0021
77.9915
78.0132
78.0122
78.0078
77.9993
77.9886
78.0115
78.0105
78.0063
77.9977
77.9867
78.0111
78.0102
78.0061
77.9973
77.9859
78.0121
78.0113
78.0072
77.9983
77.9864
78.0143
78.0136
78.0096
78.0005
77.9883
78.0175
78.017
78.0132
78.0041
77.9917
78.0215
78.0212
78.0176
78.0088
77.9965
78.0258
78.0258
78.0227
78.0145
78.0029
78.0302
78.0304
78.0279
78.0208
78.0104
78.0345
78.0347
78.033
78.0274
78.0187
78.0375
78.0379
78.0375
78.0338
78.0274
78.0397
78.0408
78.0415
78.04
78.0364
78.0426
78.0443
78.0451
78.0462
78.0458
78.0461
78.0473
78.0488
78.0527
78.0559
78.05
78.0496
78.0529
78.0602
78.0671
78.0549
78.0545
78.0616
78.0743
78.0865
78.3464
78.3447
78.3416
78.3361
78.3296
78.3491
78.3451
78.3401
78.3327
78.3232
78.3455
78.3399
78.33
78.3168
78.3002
78.3346
78.3266
78.3112
78.2915
78.2669
78.318
78.3085
78.2891
78.2667
78.2384
78.2991
78.2883
78.2655
78.2429
78.2141
78.2789
78.2673
78.2415
78.2181
78.1892
78.258
78.2459
78.2179
78.1925
78.1647
78.2366
78.2244
78.1948
78.1671
78.1388
78.2152
78.2031
78.1726
78.1423
78.1112
78.1942
78.1827
78.1522
78.1201
78.0865
78.1739
78.1634
78.1341
78.1016
78.0666
78.1548
78.1458
78.119
78.0882
78.0564
78.137
78.1296
78.1059
78.0779
78.0493
78.1204
78.1146
78.0943
78.0694
78.0439
78.1049
78.1006
78.0836
78.0619
78.0395
78.0906
78.0875
78.0735
78.0547
78.0352
78.0773
78.0753
78.0639
78.0477
78.0304
78.0651
78.0639
78.0547
78.0407
78.0253
78.0541
78.0534
78.046
78.0337
78.0198
78.0442
78.0439
78.0378
78.027
78.0142
78.0356
78.0355
78.0304
78.0206
78.0086
78.0282
78.0283
78.0239
78.0148
78.0032
78.0221
78.0223
78.0183
78.0096
77.9982
78.0174
78.0176
78.0139
78.0054
77.9939
78.0142
78.0143
78.0107
78.0022
77.9905
78.0124
78.0124
78.0088
78.0002
77.988
78.012
78.0119
78.0083
77.9994
77.9868
78.0129
78.0128
78.0092
78.0001
77.9869
78.0151
78.015
78.0114
78.0021
77.9885
78.0183
78.0182
78.0147
78.0056
77.9919
78.0222
78.0223
78.019
78.0102
77.9968
78.0266
78.0268
78.0239
78.0159
78.0036
78.0307
78.031
78.0289
78.0223
78.0117
78.034
78.0347
78.0336
78.0287
78.0204
78.0367
78.0379
78.0378
78.035
78.0294
78.0395
78.0412
78.0417
78.0411
78.0384
78.043
78.0449
78.0453
78.0468
78.0473
78.0472
78.0476
78.049
78.0525
78.0558
78.0513
78.0502
78.0531
78.059
78.0652
78.0553
78.0547
78.0593
78.0689
78.0784
78.3463
78.3455
78.3426
78.3379
78.3323
78.3491
78.347
78.342
78.3352
78.3263
78.3453
78.342
78.3323
78.3202
78.3045
78.3349
78.3296
78.3136
78.2943
78.2689
78.3193
78.3124
78.2916
78.2677
78.2341
78.3012
78.2933
78.2693
78.2442
78.2074
78.2819
78.2733
78.2472
78.2214
78.1842
78.2617
78.2527
78.2253
78.1988
78.1629
78.2409
78.232
78.2037
78.176
78.1407
78.2199
78.2113
78.1826
78.1532
78.1174
78.1991
78.1911
78.1627
78.1318
78.0955
78.1788
78.1718
78.1446
78.1125
78.0748
78.1596
78.154
78.1294
78.0992
78.0661
78.1416
78.1375
78.1161
78.0889
78.0598
78.1247
78.1222
78.104
78.0801
78.0547
78.1089
78.1077
78.0928
78.0721
78.0499
78.0942
78.0941
78.082
78.0643
78.0449
78.0806
78.0814
78.0716
78.0566
78.0394
78.0681
78.0694
78.0617
78.0488
78.0335
78.0568
78.0584
78.0522
78.041
78.0272
78.0466
78.0484
78.0434
78.0335
78.0207
78.0377
78.0395
78.0352
78.0263
78.0142
78.0301
78.0318
78.028
78.0197
78.0079
78.0238
78.0253
78.0218
78.0138
78.0021
78.0189
78.0201
78.0168
78.0088
77.9969
78.0154
78.0164
78.013
78.0049
77.9925
78.0134
78.014
78.0107
78.0023
77.9894
78.0128
78.0132
78.0097
78.0011
77.9875
78.0136
78.0137
78.0102
78.0013
77.9871
78.0156
78.0155
78.012
78.0029
77.9884
78.0187
78.0185
78.015
78.0061
77.9915
78.0222
78.0221
78.019
78.0105
77.9963
78.0261
78.0263
78.0235
78.016
78.0033
78.03
78.0306
78.0283
78.0222
78.0115
78.0336
78.0346
78.0328
78.0285
78.0203
78.0369
78.0378
78.0367
78.0345
78.0292
78.0403
78.0407
78.041
78.0403
78.0377
78.0441
78.0444
78.045
78.0457
78.0459
78.0481
78.0481
78.0491
78.0513
78.0533
78.0519
78.0515
78.0534
78.0573
78.0613
78.0549
78.0551
78.0583
78.0642
78.0701
0.67159
0.671636
0.671883
0.67226
0.671773
0.671788
0.672242
0.672918
0.671982
0.672066
0.672804
0.673762
0.672242
0.672464
0.67356
0.674761
0.675082
0.672312
0.6727
0.673995
0.67521
0.675229
0.672107
0.672654
0.674118
0.675364
0.675214
0.671384
0.672032
0.673568
0.674769
0.674376
0.670099
0.670826
0.672417
0.673595
0.673029
0.668207
0.668986
0.670624
0.671821
0.671167
0.665693
0.666483
0.668136
0.669359
0.66864
0.662642
0.66341
0.665078
0.66637
0.665734
0.659135
0.659816
0.661402
0.662571
0.661608
0.655437
0.656048
0.65771
0.659156
0.659078
0.651735
0.652279
0.654028
0.655741
0.656503
0.648172
0.648662
0.650453
0.652335
0.653695
0.64484
0.645291
0.647086
0.649085
0.650834
0.641782
0.642213
0.643984
0.646099
0.648097
0.639001
0.63943
0.64117
0.643412
0.645596
0.636474
0.636915
0.638651
0.641017
0.643363
0.63416
0.634624
0.636383
0.638856
0.641357
0.632008
0.632493
0.634283
0.63685
0.639503
0.629959
0.63046
0.632277
0.634909
0.637728
0.62796
0.628472
0.630305
0.632979
0.635932
0.625967
0.626485
0.628324
0.631018
0.63406
0.623945
0.624468
0.626303
0.628996
0.632105
0.621871
0.622394
0.624214
0.626877
0.630004
0.619732
0.620252
0.622043
0.624643
0.627728
0.617528
0.618042
0.619787
0.622288
0.625264
0.615273
0.615774
0.617457
0.61982
0.62261
0.612995
0.613476
0.61508
0.617267
0.619767
0.610739
0.611192
0.612701
0.614691
0.61679
0.60857
0.60899
0.610383
0.612154
0.61376
0.606578
0.606961
0.608229
0.609765
0.610963
0.604874
0.605219
0.606342
0.60765
0.608554
0.603596
0.603912
0.604872
0.605974
0.606622
0.602899
0.603192
0.604006
0.604877
0.605235
0.602952
0.603279
0.604033
0.604688
0.60476
0.603818
0.604267
0.60504
0.605649
0.605486
0.605411
0.606117
0.607103
0.607914
0.607793
0.607048
0.607923
0.609104
0.610079
0.609961
0.608671
0.610045
0.611621
0.612595
0.61229
0.671165
0.67112
0.671206
0.671455
0.671232
0.671126
0.671352
0.671677
0.671274
0.671212
0.671587
0.672017
0.671383
0.671434
0.672028
0.672706
0.671334
0.671499
0.672176
0.672863
0.672889
0.671024
0.671306
0.67209
0.672831
0.672812
0.670248
0.67062
0.671439
0.672128
0.671914
0.66893
0.66939
0.670246
0.670914
0.670557
0.667013
0.667552
0.668453
0.669146
0.668706
0.664473
0.665062
0.665994
0.66671
0.666168
0.6614
0.662019
0.663013
0.663831
0.663363
0.657882
0.658471
0.659415
0.660094
0.659171
0.654209
0.654802
0.655876
0.656913
0.656861
0.650556
0.651124
0.652344
0.653737
0.654404
0.647055
0.647592
0.648971
0.650666
0.651894
0.643793
0.64432
0.645851
0.647798
0.649451
0.640813
0.641362
0.643035
0.645202
0.647203
0.638113
0.638706
0.640524
0.642889
0.645201
0.635661
0.636309
0.638258
0.640824
0.643435
0.633411
0.634112
0.636172
0.638951
0.641819
0.631309
0.632052
0.634201
0.637194
0.640261
0.6293
0.630068
0.632284
0.63545
0.638669
0.627334
0.628113
0.630366
0.633651
0.636968
0.625367
0.626148
0.628413
0.631756
0.635121
0.623369
0.624145
0.626399
0.629739
0.633145
0.621315
0.622083
0.624299
0.627579
0.630972
0.619196
0.619953
0.622104
0.625273
0.628588
0.617011
0.617756
0.619814
0.622825
0.625992
0.614775
0.615504
0.617445
0.620251
0.623192
0.612513
0.613222
0.615027
0.617598
0.62021
0.610267
0.610953
0.612602
0.614927
0.617116
0.608099
0.608758
0.610238
0.612272
0.613995
0.60609
0.606722
0.608044
0.609749
0.610987
0.604348
0.604947
0.606071
0.607477
0.608252
0.603014
0.603593
0.604474
0.605532
0.605936
0.602246
0.602786
0.603511
0.604185
0.604123
0.602255
0.60282
0.603475
0.60386
0.603455
0.603138
0.603801
0.604567
0.604951
0.604405
0.604765
0.605804
0.606966
0.607731
0.60739
0.606687
0.608246
0.610084
0.611287
0.610997
0.609318
0.612409
0.615406
0.616883
0.616399
0.670574
0.670518
0.670629
0.670597
0.670563
0.670527
0.67073
0.670803
0.670486
0.670563
0.670853
0.670956
0.670444
0.67065
0.671105
0.671442
0.670238
0.670549
0.671058
0.671385
0.669783
0.670219
0.670842
0.671265
0.671101
0.66889
0.66943
0.67011
0.670521
0.670212
0.667463
0.668114
0.668864
0.669311
0.668914
0.665435
0.666195
0.667034
0.667576
0.667171
0.662766
0.663605
0.664514
0.665144
0.664728
0.659562
0.660467
0.661491
0.662312
0.662123
0.65592
0.65681
0.657806
0.658474
0.657855
0.652174
0.653097
0.654287
0.6553
0.655553
0.648509
0.649444
0.650825
0.65214
0.652988
0.645068
0.646014
0.647609
0.649279
0.650633
0.641929
0.642876
0.644714
0.646751
0.648506
0.639087
0.640065
0.642185
0.644588
0.646695
0.636516
0.637564
0.639977
0.642736
0.645163
0.634173
0.63532
0.638015
0.64112
0.643846
0.632011
0.633255
0.636213
0.639625
0.642626
0.629976
0.631298
0.634491
0.638129
0.641386
0.628016
0.629405
0.632736
0.636543
0.640011
0.626085
0.627518
0.630898
0.634828
0.63842
0.624145
0.625596
0.628959
0.632957
0.636582
0.62217
0.623619
0.626918
0.630913
0.634549
0.620139
0.621567
0.624764
0.628683
0.632296
0.618048
0.619443
0.6225
0.626293
0.629828
0.615901
0.617258
0.620148
0.623767
0.627153
0.613713
0.615029
0.617758
0.621133
0.624282
0.611506
0.612779
0.615387
0.61847
0.621231
0.609308
0.610535
0.613049
0.615839
0.618066
0.607161
0.608362
0.610797
0.613193
0.614883
0.605112
0.60628
0.608702
0.610587
0.611746
0.60323
0.604339
0.606655
0.608057
0.60873
0.60161
0.602733
0.604634
0.605593
0.605866
0.600524
0.601588
0.602781
0.603251
0.603116
0.600326
0.601213
0.601681
0.601672
0.601194
0.60116
0.601925
0.602171
0.601861
0.601015
0.603087
0.604174
0.604982
0.605005
0.604069
0.605173
0.607572
0.609292
0.609856
0.608775
0.60846
0.613353
0.616685
0.617499
0.615784
0.669904
0.669844
0.669928
0.669739
0.669855
0.669928
0.670052
0.669954
0.669702
0.669961
0.670125
0.670056
0.669534
0.669947
0.670312
0.670481
0.669184
0.66971
0.67017
0.67029
0.668591
0.669263
0.669879
0.670096
0.66757
0.668368
0.669085
0.669318
0.668779
0.666009
0.666949
0.667785
0.668109
0.667554
0.66383
0.664917
0.665905
0.666409
0.665968
0.660985
0.662185
0.6633
0.663974
0.663656
0.657613
0.658915
0.660211
0.661173
0.661258
0.653827
0.655135
0.656436
0.657209
0.656907
0.650019
0.651419
0.652936
0.654044
0.654599
0.646388
0.647837
0.649558
0.650989
0.652039
0.643037
0.644586
0.646574
0.648451
0.649988
0.640018
0.641668
0.644005
0.646331
0.64827
0.637335
0.63906
0.641829
0.644618
0.646934
0.63492
0.636742
0.639976
0.643197
0.645851
0.632687
0.634645
0.638348
0.641961
0.644925
0.630586
0.63269
0.636827
0.640779
0.644015
0.628588
0.630811
0.635293
0.63954
0.642998
0.626652
0.628968
0.633645
0.638141
0.64176
0.624737
0.627095
0.631863
0.636514
0.64024
0.622811
0.625165
0.629942
0.634622
0.638426
0.620855
0.623181
0.627883
0.632512
0.636379
0.618857
0.621134
0.625696
0.630229
0.634071
0.616821
0.619038
0.623442
0.627815
0.631542
0.614757
0.616921
0.621176
0.625302
0.628826
0.612678
0.61481
0.618975
0.622725
0.625959
0.610592
0.61272
0.616874
0.620171
0.622997
0.608506
0.610681
0.614842
0.617684
0.619993
0.606416
0.608742
0.612839
0.615266
0.616983
0.604315
0.606906
0.610778
0.612884
0.613908
0.602198
0.605104
0.608526
0.610339
0.610673
0.600181
0.603234
0.605946
0.607409
0.607188
0.598515
0.601243
0.602894
0.603882
0.603226
0.5976
0.599458
0.599879
0.600242
0.599492
0.597816
0.598849
0.598267
0.597992
0.59714
0.599714
0.60054
0.600314
0.599847
0.598707
0.601819
0.604171
0.604944
0.604721
0.603205
0.605456
0.611009
0.613087
0.612854
0.610318
0.669246
0.669257
0.669105
0.668871
0.669167
0.669322
0.669294
0.669027
0.668946
0.669331
0.669359
0.669068
0.668671
0.669248
0.669503
0.66947
0.668194
0.668914
0.669286
0.669175
0.667469
0.668375
0.668948
0.668901
0.666321
0.66739
0.668102
0.668111
0.664623
0.665867
0.666761
0.666915
0.666171
0.662288
0.663721
0.664842
0.665276
0.664801
0.659255
0.660848
0.662162
0.662858
0.662644
0.655712
0.657479
0.659055
0.660124
0.660472
0.651813
0.653664
0.655234
0.656116
0.656131
0.648015
0.650041
0.651832
0.653149
0.653973
0.64447
0.64664
0.648686
0.650403
0.651638
0.641289
0.64363
0.646121
0.648349
0.650065
0.638463
0.641014
0.644017
0.646731
0.648822
0.63595
0.638725
0.64231
0.645515
0.647946
0.633673
0.636629
0.640849
0.644512
0.647236
0.631556
0.634681
0.639522
0.643605
0.646598
0.629527
0.632848
0.638217
0.642652
0.645885
0.627528
0.631049
0.636828
0.641538
0.644985
0.625543
0.62921
0.635289
0.640178
0.643804
0.623592
0.627296
0.633556
0.63853
0.642292
0.621655
0.625316
0.631617
0.636603
0.640452
0.619708
0.623308
0.629521
0.634468
0.638364
0.617749
0.621272
0.627357
0.632159
0.636019
0.61579
0.619252
0.625187
0.629758
0.633497
0.613847
0.617317
0.62306
0.627339
0.630852
0.611924
0.615515
0.621035
0.624992
0.628145
0.610021
0.613876
0.619164
0.622797
0.625425
0.608121
0.612454
0.617455
0.620751
0.622674
0.606198
0.611318
0.615881
0.618777
0.61986
0.60414
0.61038
0.614264
0.616637
0.616772
0.601836
0.609136
0.612227
0.613932
0.613158
0.599317
0.607042
0.609337
0.610293
0.608855
0.596801
0.603608
0.605135
0.605356
0.603529
0.594816
0.599332
0.59981
0.599535
0.59784
0.593844
0.595662
0.594954
0.594279
0.592985
0.594852
0.595286
0.594041
0.593026
0.591955
0.596503
0.597962
0.597611
0.596705
0.595192
0.599802
0.604115
0.604515
0.603447
0.600891
0.668573
0.668587
0.66832
0.668011
0.66848
0.668655
0.668527
0.668065
0.668211
0.668642
0.668572
0.668032
0.667828
0.668517
0.668702
0.668433
0.667242
0.668135
0.668434
0.66808
0.6664
0.667527
0.668042
0.667714
0.665118
0.666461
0.667149
0.666893
0.663278
0.664837
0.66577
0.665723
0.660804
0.662591
0.663824
0.664169
0.663644
0.657642
0.659621
0.661105
0.661795
0.661639
0.654009
0.656262
0.658055
0.659181
0.659757
0.650099
0.652504
0.654271
0.6553
0.655589
0.646407
0.649049
0.651177
0.652733
0.653781
0.643021
0.645939
0.648464
0.650435
0.651827
0.640051
0.643338
0.646434
0.648941
0.650766
0.637449
0.641141
0.644849
0.647821
0.649917
0.635138
0.639261
0.643622
0.647041
0.649363
0.633022
0.637574
0.64256
0.646363
0.648869
0.631011
0.635951
0.641526
0.645672
0.648361
0.629035
0.634261
0.640383
0.644828
0.647709
0.627059
0.632491
0.639047
0.643744
0.646827
0.625064
0.630676
0.637475
0.642361
0.645639
0.623071
0.628798
0.635663
0.640672
0.644116
0.6211
0.626819
0.633648
0.638708
0.642264
0.619153
0.624802
0.631525
0.636563
0.640179
0.617235
0.622838
0.629368
0.634303
0.63787
0.615365
0.621016
0.627281
0.632041
0.635437
0.613564
0.619419
0.625367
0.629866
0.632937
0.611839
0.618128
0.623714
0.627855
0.630421
0.610182
0.617286
0.622356
0.62603
0.627888
0.6085
0.616871
0.621242
0.624293
0.625236
0.606618
0.616432
0.620155
0.622398
0.622315
0.604379
0.615458
0.618712
0.619973
0.618816
0.601825
0.613579
0.61643
0.616575
0.614427
0.599017
0.610482
0.612875
0.611924
0.609076
0.596063
0.606089
0.607654
0.605704
0.602455
0.593141
0.600444
0.600861
0.598278
0.595199
0.590602
0.594061
0.59325
0.590658
0.588312
0.589817
0.589756
0.587712
0.585685
0.584401
0.590271
0.590591
0.589237
0.587635
0.586194
0.592761
0.595076
0.594062
0.592395
0.590148
0.667857
0.667803
0.667563
0.667173
0.667751
0.667897
0.667737
0.66709
0.667448
0.66792
0.667763
0.666962
0.667
0.667785
0.667895
0.667358
0.666312
0.667368
0.667603
0.666975
0.665365
0.66672
0.667159
0.666568
0.663961
0.665589
0.666222
0.665683
0.661986
0.663883
0.664819
0.664515
0.659384
0.66157
0.662883
0.663082
0.656133
0.65858
0.660196
0.660792
0.660634
0.652552
0.655345
0.657274
0.658439
0.659201
0.648789
0.651724
0.653703
0.654895
0.655413
0.64529
0.648637
0.651102
0.65287
0.654093
0.642147
0.64597
0.64891
0.651068
0.652521
0.639437
0.643874
0.647456
0.650094
0.65184
0.637074
0.642163
0.646374
0.649354
0.651205
0.634967
0.640738
0.64556
0.648852
0.650719
0.633009
0.63944
0.644784
0.648329
0.65023
0.631118
0.638161
0.643918
0.647696
0.649699
0.62923
0.63681
0.642848
0.646841
0.649006
0.627304
0.635314
0.641518
0.645707
0.648086
0.625315
0.633595
0.639902
0.644264
0.646874
0.623284
0.631659
0.638031
0.642535
0.645346
0.621259
0.629661
0.635993
0.640576
0.643513
0.619294
0.627693
0.633902
0.638494
0.641476
0.6174
0.625885
0.631869
0.636362
0.639252
0.615599
0.624359
0.630013
0.634285
0.636924
0.613889
0.623204
0.628422
0.632317
0.634512
0.612226
0.622422
0.627133
0.630468
0.632013
0.610508
0.621792
0.626058
0.628644
0.629333
0.608697
0.620984
0.624975
0.626639
0.626308
0.606795
0.619838
0.623608
0.624162
0.622733
0.604787
0.618058
0.621572
0.620866
0.618339
0.602724
0.615453
0.618448
0.616391
0.612861
0.600716
0.611995
0.613992
0.610651
0.606418
0.598518
0.607575
0.607926
0.60339
0.598743
0.595558
0.602152
0.600648
0.595331
0.590764
0.591143
0.594884
0.591616
0.586233
0.582581
0.587128
0.587596
0.584573
0.580285
0.577508
0.584928
0.584606
0.582066
0.579237
0.577357
0.586175
0.586723
0.584616
0.582169
0.579905
0.667119
0.667019
0.666876
0.666412
0.666978
0.667114
0.666947
0.666135
0.666654
0.66718
0.666942
0.665876
0.666165
0.667057
0.667103
0.666257
0.665418
0.666638
0.666796
0.665835
0.664393
0.665974
0.6663
0.66542
0.662884
0.664803
0.665332
0.664536
0.660797
0.663051
0.663924
0.663341
0.658108
0.660729
0.662042
0.662005
0.654834
0.657823
0.659414
0.659864
0.65139
0.654743
0.656738
0.657937
0.658835
0.647858
0.651382
0.653559
0.654864
0.655566
0.64473
0.648787
0.651526
0.653409
0.654729
0.641928
0.646652
0.649865
0.652016
0.653408
0.63952
0.645121
0.648927
0.651414
0.652712
0.637406
0.643914
0.648231
0.650838
0.651966
0.635489
0.642914
0.647671
0.650369
0.651378
0.633669
0.641928
0.647009
0.6498
0.650752
0.631863
0.640838
0.646153
0.649075
0.65009
0.630014
0.639563
0.645029
0.648112
0.649295
0.628091
0.638079
0.643633
0.646889
0.648315
0.626093
0.636399
0.641981
0.645399
0.647086
0.624042
0.634581
0.640131
0.643672
0.645576
0.621976
0.632698
0.63817
0.641759
0.643779
0.619938
0.630846
0.636201
0.639752
0.641783
0.617962
0.629109
0.634313
0.637706
0.639583
0.61607
0.627566
0.63259
0.635678
0.637218
0.614266
0.626248
0.631067
0.63366
0.634651
0.612545
0.625089
0.629701
0.631585
0.631819
0.610896
0.623931
0.628345
0.629284
0.628566
0.609353
0.622616
0.626772
0.626533
0.624732
0.607984
0.620951
0.624664
0.623065
0.620136
0.60707
0.618884
0.621727
0.618656
0.614647
0.606827
0.616426
0.617709
0.613101
0.608116
0.606978
0.613394
0.612499
0.606474
0.600836
0.605894
0.609201
0.605961
0.598671
0.592609
0.602503
0.603711
0.598625
0.590536
0.584453
0.595896
0.596333
0.590161
0.581765
0.575982
0.587327
0.589383
0.584159
0.576896
0.571796
0.580478
0.579621
0.575906
0.571791
0.569301
0.580218
0.579441
0.576569
0.573231
0.570688
0.666413
0.666297
0.666273
0.665763
0.666214
0.666358
0.666187
0.66523
0.665865
0.666468
0.666136
0.664795
0.665347
0.666378
0.666326
0.665135
0.664552
0.665981
0.666031
0.664653
0.663465
0.665317
0.665499
0.664229
0.661873
0.66412
0.664476
0.663367
0.659713
0.662369
0.663071
0.662247
0.656996
0.660122
0.661244
0.660976
0.653798
0.657317
0.658772
0.659021
0.650575
0.654422
0.656465
0.657608
0.647306
0.65143
0.653727
0.65505
0.655886
0.644571
0.649366
0.652218
0.654057
0.655221
0.642242
0.647762
0.650995
0.652833
0.653667
0.640309
0.646752
0.650419
0.652238
0.652755
0.638491
0.64595
0.64991
0.651575
0.651688
0.636755
0.645227
0.649357
0.650951
0.650822
0.635036
0.644375
0.64863
0.650191
0.649943
0.633258
0.643283
0.647664
0.649283
0.649077
0.63139
0.641924
0.646427
0.648174
0.648139
0.629419
0.640323
0.644942
0.646857
0.647078
0.627358
0.638524
0.643246
0.645325
0.645815
0.625239
0.636599
0.641396
0.643592
0.644298
0.623101
0.63463
0.639465
0.641691
0.642495
0.620992
0.632698
0.637532
0.639679
0.640457
0.618951
0.630868
0.635655
0.637569
0.63814
0.61702
0.629187
0.633871
0.635363
0.635531
0.615231
0.627644
0.632157
0.632995
0.632538
0.613643
0.626155
0.630404
0.630348
0.629067
0.612383
0.624628
0.628434
0.627227
0.624934
0.611707
0.623061
0.626057
0.623464
0.620061
0.611869
0.621432
0.623031
0.618849
0.614297
0.612998
0.619537
0.619131
0.613317
0.607749
0.613306
0.616679
0.614137
0.606793
0.600364
0.611262
0.612452
0.608112
0.599558
0.592623
0.607274
0.607109
0.601264
0.591743
0.584442
0.602182
0.601237
0.594214
0.584044
0.576607
0.596076
0.595385
0.587595
0.576995
0.569245
0.588721
0.589613
0.581583
0.571554
0.564933
0.578334
0.581631
0.577446
0.569265
0.563845
0.575787
0.575242
0.571606
0.566516
0.562746
0.665796
0.665676
0.6658
0.665262
0.66552
0.665686
0.66551
0.664399
0.665115
0.665835
0.66539
0.663741
0.664556
0.665789
0.665583
0.663999
0.663717
0.665427
0.665272
0.663425
0.662578
0.664768
0.664726
0.662979
0.660936
0.663574
0.663693
0.66214
0.658759
0.661873
0.662242
0.661103
0.656091
0.659696
0.660462
0.660001
0.653102
0.656977
0.658232
0.658309
0.65015
0.654372
0.656306
0.657336
0.647203
0.651781
0.654058
0.655102
0.644862
0.650177
0.652939
0.654241
0.654908
0.642916
0.648963
0.651875
0.652889
0.652842
0.641404
0.648278
0.651299
0.652019
0.651452
0.640106
0.647667
0.650675
0.65102
0.649891
0.638808
0.647022
0.64999
0.650079
0.648595
0.637274
0.646154
0.649096
0.649028
0.647355
0.635556
0.644945
0.647968
0.647885
0.646218
0.633692
0.643449
0.646606
0.646609
0.645094
0.631671
0.641719
0.64504
0.645192
0.643923
0.629533
0.639812
0.643302
0.64361
0.642603
0.627331
0.637799
0.641436
0.641852
0.641049
0.625123
0.635748
0.639484
0.639913
0.639193
0.622977
0.633723
0.637495
0.637805
0.637035
0.620973
0.631776
0.63549
0.635495
0.634485
0.619213
0.629949
0.633464
0.632939
0.631483
0.617821
0.628239
0.631352
0.630026
0.627898
0.616955
0.626636
0.62903
0.62662
0.623623
0.616896
0.625097
0.626303
0.622516
0.61847
0.617819
0.623453
0.622957
0.617594
0.612459
0.618398
0.621113
0.618706
0.611682
0.605463
0.616535
0.617456
0.613434
0.604914
0.597851
0.612885
0.612686
0.607248
0.597427
0.589694
0.608114
0.607188
0.600538
0.589749
0.581699
0.602813
0.601464
0.59377
0.582218
0.573914
0.597646
0.596218
0.58773
0.57558
0.567033
0.593084
0.592197
0.583339
0.570631
0.561545
0.588924
0.588868
0.579833
0.566516
0.55771
0.58032
0.588037
0.581738
0.569049
0.559119
0.573641
0.571615
0.566804
0.560467
0.55514
0.665295
0.665182
0.665496
0.664933
0.664908
0.665118
0.664954
0.66366
0.664424
0.665321
0.664734
0.66272
0.663811
0.66533
0.664895
0.66285
0.662921
0.664999
0.664537
0.662142
0.661746
0.664339
0.663952
0.661649
0.660097
0.66316
0.662888
0.660818
0.657978
0.661497
0.661476
0.659878
0.65551
0.659345
0.659815
0.658965
0.65282
0.656806
0.657793
0.657516
0.650161
0.6545
0.656137
0.6569
0.647543
0.652271
0.654138
0.654593
0.645559
0.650948
0.653075
0.653489
0.643955
0.64991
0.651919
0.651697
0.650535
0.642798
0.64931
0.651111
0.650322
0.648407
0.641892
0.648568
0.650155
0.648795
0.646145
0.641157
0.647763
0.649152
0.64738
0.644261
0.640404
0.64675
0.647984
0.64594
0.642557
0.639343
0.645471
0.646657
0.644513
0.641087
0.637803
0.643921
0.645166
0.643054
0.63975
0.635919
0.642169
0.643538
0.64154
0.638463
0.633822
0.640275
0.641784
0.639918
0.63709
0.631641
0.638295
0.639914
0.638137
0.635507
0.629487
0.636275
0.637937
0.636144
0.633598
0.627486
0.634267
0.635857
0.633902
0.631306
0.625776
0.632308
0.633653
0.631328
0.628494
0.624505
0.63042
0.631272
0.628328
0.625051
0.623769
0.62855
0.628597
0.624752
0.620816
0.623378
0.626508
0.625449
0.620441
0.615681
0.622425
0.6239
0.62158
0.61519
0.609462
0.619991
0.62043
0.616835
0.608963
0.602292
0.616409
0.616053
0.611111
0.601691
0.594068
0.611836
0.610838
0.60455
0.593732
0.585418
0.606583
0.605013
0.59739
0.58537
0.576563
0.601022
0.598987
0.590166
0.577277
0.568316
0.595695
0.593343
0.583498
0.56992
0.560796
0.591293
0.588888
0.578307
0.564144
0.554692
0.588417
0.586447
0.575568
0.560844
0.550583
0.586633
0.585908
0.575519
0.560462
0.548819
0.585301
0.585681
0.57658
0.563181
0.55093
0.573788
0.572436
0.567097
0.55636
0.548016
0.664911
0.664818
0.665373
0.664796
0.664391
0.664679
0.664525
0.663023
0.663806
0.664977
0.664174
0.66173
0.663117
0.665027
0.664266
0.661673
0.662176