/*--------------------------------*- C++ -*----------------------------------*\
| =========                 |                                                 |
| \\      /  F ield         | OpenFOAM: The Open Source CFD Toolbox           |
|  \\    /   O peration     | Version:  2.3.1                                 |
|   \\  /    A nd           | Web:      www.OpenFOAM.org                      |
|    \\/     M anipulation  |                                                 |
\*---------------------------------------------------------------------------*/
FoamFile
{
    version     2.0;
    format      ascii;
    class       surfaceScalarField;
    location    "600";
    object      phi;
}
// * * * * * * * * * * * * * * * * * * * * * * * * * * * * * * * * * * * * * //

dimensions      [0 3 -1 0 0 0 0];

internalField   nonuniform List<scalar> 
18493
(
6.02576e-06
-0.000142765
0.000136739
-0.000153796
-9.5534e-05
0.000255356
-0.000446431
-3.94253e-05
0.00033206
-0.000829118
-7.6529e-05
0.000459216
-0.000196453
0.000606853
-0.000391884
-2.1023e-05
0.000270143
-0.00104281
5.27867e-05
0.000502607
-0.00170893
1.3614e-05
0.000613084
-0.00232687
-0.000171679
0.000713086
-0.000475511
0.00079099
-0.000634001
0.000238734
0.000374245
-0.00145492
0.000295671
0.000578038
-0.00221776
0.000129204
0.000647246
-0.00288734
-0.000165514
0.000663417
-0.000552708
0.000603311
-0.000763854
0.000533233
0.000469355
-0.00172781
0.000652033
0.000607592
-0.00261765
0.000462437
0.000556612
-0.0033756
0.000189437
0.000403
-0.000120907
0.000129783
-0.000871476
0.000840596
0.000564114
-0.00194296
0.00110243
0.000621089
-0.00290905
0.000975262
0.000453262
-0.00369285
0.000802956
0.00017028
0.000627063
-0.000225578
-0.000954222
0.00115427
0.000640548
-0.00210095
0.00159763
0.000651526
-0.00310925
0.00155258
0.000430977
-0.00390139
0.00148334
0.000111757
0.00142971
-0.000300922
-0.000978122
0.00144353
0.000688863
-0.00215286
0.00208275
0.000689621
-0.003174
0.00211391
0.000459809
-0.00396477
0.00212678
0.000147334
0.00216059
-0.000240448
-0.00095386
0.00168813
0.000709258
-0.00212102
0.00252703
0.000722879
-0.00313732
0.00262567
0.000504534
-0.00392397
0.00270553
0.000207905
0.002812
-0.000159688
-0.000893084
0.00187574
0.000705471
-0.00202395
0.00291202
0.000745875
-0.00302145
0.00307124
0.00055193
-0.00380083
0.0032081
0.000276809
0.00338218
-7.16959e-05
-0.000805656
0.00199987
0.000681533
-0.00187411
0.00322451
0.000755961
-0.00283637
0.00343816
0.000595337
-0.00359905
0.00362352
0.000347272
0.00386278
2.17168e-05
-0.000701655
0.00206049
0.00064103
-0.00168587
0.00345701
0.000751713
-0.00259668
0.00371839
0.000630583
-0.00333088
0.00394196
0.000415764
0.00423915
0.000121431
-0.000588255
0.00206178
0.00058697
-0.00146862
0.00360499
0.000732383
-0.00230793
0.00390354
0.000654153
-0.00299257
0.00414561
0.000480993
0.00447387
0.000234769
-0.000474674
0.00201392
0.000522532
-0.00124016
0.00367272
0.000697753
-0.00199565
0.00399824
0.00066079
-0.0026195
0.00423905
0.000530415
0.00457099
0.000334266
-0.000367778
0.00193009
0.000451605
-0.00101549
0.00367076
0.000649678
-0.00168171
0.00401542
0.000649038
-0.00224014
0.00423977
0.000557712
0.00455389
0.000407574
-0.000271792
0.00182352
0.000378366
-0.000805562
0.0036129
0.000591625
-0.00138278
0.00397183
0.000620811
-0.00187607
0.00417049
0.000562567
0.00445273
0.000451467
-0.000188521
0.00170547
0.000306574
-0.000616776
0.00351347
0.000527689
-0.00110918
0.00388432
0.000579913
-0.00154072
0.00405371
0.000548322
0.00429719
0.000468659
-0.000118069
0.00158442
0.00023912
-0.000451618
0.00338522
0.000461798
-0.000865622
0.0037676
0.000530728
-0.00124039
0.00390864
0.000519838
0.00411232
0.000464571
-5.9612e-05
0.00146619
0.000177835
-0.00030971
0.00323807
0.000397246
-0.00065261
0.00363313
0.000477365
-0.000975999
0.00374986
0.000482169
0.00391683
0.000445435
-1.27692e-05
0.00135573
0.000123232
-0.000188621
0.00307703
0.000336897
-0.00046761
0.00348887
0.000423257
-0.000744824
0.00358728
0.000439789
0.00372304
0.000417122
2.49901e-05
0.00125474
7.60052e-05
-8.5378e-05
0.00290538
0.000282014
-0.000306667
0.00333925
0.000370903
-0.000542128
0.0034266
0.000396144
0.0035377
0.000384325
5.77565e-05
0.00116034
3.66422e-05
1.74494e-06
0.00272935
0.000232048
-0.000165394
0.00318431
0.000322079
-0.000362252
0.00326984
0.000353612
0.00336328
0.000350441
8.55074e-05
0.00107082
4.00665e-06
7.59678e-05
0.002552
0.000186881
-3.94103e-05
0.00302276
0.000276927
-0.000199331
0.0031161
0.000313667
0.003199
0.000317705
0.000108719
0.000982894
-2.07897e-05
0.000141808
0.00237248
0.000146435
7.49263e-05
0.00285381
0.000235835
-4.75678e-05
0.00296206
0.000276535
0.00304174
0.000287505
0.000128949
0.000891053
-3.71076e-05
0.00020265
0.00218848
0.000110295
0.000181543
0.00267561
0.000199311
9.79821e-05
0.00280311
0.000242512
0.00288687
0.000259859
0.000147438
0.000792174
-4.85585e-05
0.000260874
0.00199636
7.86852e-05
0.000284193
0.00248533
0.000166957
0.000240659
0.00263448
0.000212162
0.00272811
0.000234805
0.000165673
0.00068423
-5.7729e-05
0.000318055
0.00179179
5.21951e-05
0.000385998
0.00227966
0.000137729
0.00038392
0.0024511
0.000185457
0.00255833
0.000212853
0.00018459
0.000565233
-6.55932e-05
0.000375555
0.00157104
2.97846e-05
0.000488988
0.00205473
0.000111497
0.000530048
0.00224777
0.000162275
0.00237047
0.000194043
0.000205728
0.000432822
-7.33168e-05
0.000433853
0.00133561
7.3017e-06
0.000593804
0.00180667
8.81059e-05
0.000680074
0.00201893
0.000142565
0.00215719
0.000178877
0.000229594
0.000284996
-8.17687e-05
0.000493338
0.00108898
-1.71111e-05
0.000700455
0.00153428
6.52768e-05
0.000833618
0.0017605
0.000125266
0.00191189
0.000167314
0.000255831
0.000120607
-9.1441e-05
0.00055579
0.000831677
-4.26558e-05
0.000808437
0.00124039
4.12426e-05
0.000988651
0.00147191
0.000108381
0.00163062
0.000157642
0.000284647
-5.74872e-05
-0.000106553
0.000623379
0.000564756
-7.18099e-05
0.00091411
0.000940377
9.28035e-06
0.00113924
0.00115923
8.75469e-05
0.00131418
0.000146891
0.000307396
-0.000230899
-0.000133984
0.000687949
0.00029338
-0.000109177
0.00101085
0.000652305
-3.48278e-05
0.00127705
0.0008361
5.69227e-05
0.000970103
0.000130293
0.000314012
-0.000374615
-0.000170295
0.000738172
2.03182e-05
-0.000151097
0.00109696
0.000379885
-8.63686e-05
0.0013915
0.000534741
6.81535e-06
0.000621564
9.77509e-05
0.000294241
-0.000478987
-0.000189869
0.000737033
-0.000238566
-0.000183907
0.00113926
0.000114469
-0.000136811
0.00146137
0.000269393
-5.6759e-05
0.000302472
4.12635e-05
0.0002369
-0.000548751
-0.000167136
0.000660839
-0.000466679
-0.000195826
0.00109165
-0.000140376
-0.00017597
0.00145493
2.06434e-05
-0.00011452
2.89873e-05
-3.05166e-05
0.000158634
-0.00059631
-0.000111075
0.000533324
-0.000659389
-0.000181979
0.000950388
-0.000361352
-0.000196088
0.00133315
-0.000201745
-0.000160372
-0.000197249
-0.000103937
8.136e-05
-0.000622754
-5.49157e-05
0.000369673
-0.000790609
-0.000157092
0.00074134
-0.000531834
-0.000201185
0.00111326
-0.000375639
-0.000198023
-0.000373814
-0.000172954
8.46167e-06
-0.000604724
-2.64911e-05
0.000174403
-0.000813939
-0.000142611
0.000468385
-0.000626593
-0.000199223
0.000812718
-0.000483563
-0.000236408
-0.000483807
-0.000248135
-6.94104e-05
-0.000507707
-2.76067e-05
-4.56534e-05
-0.000694458
-0.000143237
0.000150598
-0.00060402
-0.000218824
0.000465922
-0.000499068
-0.000299819
-0.000499083
-0.000358804
-0.000152181
-0.000293514
-6.20112e-05
-0.000262149
-0.000412641
-0.000171849
-0.000184093
-0.00040625
-0.000275825
9.70802e-05
-0.000369649
-0.000410592
-0.000369963
-0.000526349
-0.00019044
-0.000103074
-0.000359963
-0.000243118
-0.000372497
-0.000393716
-0.000190534
-0.000551612
-0.000703932
1.95934e-06
-0.000219932
0.000354713
-0.0003053
-1.67942e-05
0.00057941
-0.000809033
0.000117041
0.000718754
-0.00137509
0.0001061
0.000919172
1.24207e-05
0.00115148
-0.000803954
0.000102696
0.00075147
-0.0016106
0.000307804
0.000984653
-0.00231327
0.000330567
0.00110223
-0.00292947
0.000197632
0.00123775
-6.19965e-05
0.00134418
-0.00101139
0.000578894
0.000909441
-0.00190596
0.000704449
0.00107596
-0.00265919
0.000631594
0.00109945
-0.0032786
0.000422447
0.001058
9.84779e-05
0.000901696
-0.00102717
0.0010216
0.00105383
-0.00199612
0.00116925
0.00111174
-0.0028185
0.00107705
0.000933529
-0.00346561
0.000884699
0.000587864
0.000618544
3.21819e-05
-0.00105844
0.00143605
0.0012081
-0.00209058
0.00166642
0.00115606
-0.00295673
0.00159817
0.000798293
-0.00359717
0.00145381
0.000241599
0.00126955
-0.000482259
-0.00113158
0.00185473
0.00135345
-0.00224281
0.00219999
0.00122918
-0.00315916
0.00218038
0.000765123
-0.00380646
0.00209789
0.000114981
0.00198349
-0.000636968
-0.00118926
0.00226904
0.00146381
-0.0023552
0.00274622
0.00130934
-0.00329665
0.00278301
0.000798625
-0.00393701
0.00276145
0.000124131
0.00270405
-0.000605364
-0.00121364
0.00266136
0.00153058
-0.00240687
0.00327972
0.0013826
-0.0033569
0.0033713
0.000866273
-0.00399024
0.00340464
0.000198057
0.00339679
-0.00051042
-0.00119912
0.00301259
0.00155336
-0.00239287
0.00377891
0.00144045
-0.00333773
0.00392128
0.00094681
-0.00396308
0.00400569
0.000301114
0.00404982
-0.000392624
-0.00114807
0.00330637
0.00153582
-0.0023173
0.00422563
0.00147846
-0.00324288
0.0044133
0.00102891
-0.00385486
0.00454458
0.000420357
0.00464367
-0.000254394
-0.00106792
0.00353233
0.00148299
-0.00219144
0.00460725
0.00149361
-0.00308495
0.00483304
0.00110435
-0.00367742
0.00500495
0.000547861
0.00515742
-9.45791e-05
-0.000965949
0.00368544
0.0013998
-0.0020248
0.00491497
0.00148352
-0.00287049
0.00516854
0.00116435
-0.00342943
0.00536678
0.000678102
0.00555588
0.000100832
-0.000852904
0.00376879
0.00129209
-0.00183606
0.0051489
0.00144697
-0.00262698
0.00542136
0.00119889
-0.00315078
0.00563267
0.000788326
0.00584551
0.000288406
-0.000737522
0.00379081
0.0011671
-0.00164024
0.00531513
0.00138616
-0.0023749
0.00560056
0.0012045
-0.00286692
0.00581528
0.000867124
0.00604291
0.000444721
-0.000625723
0.00376234
0.00103256
-0.00144738
0.00542265
0.00130576
-0.0021266
0.00571784
0.00118276
-0.00258938
0.00592924
0.000911396
0.00616455
0.000559528
-0.000520998
0.00369429
0.000895623
-0.00126353
0.00548123
0.00121165
-0.00188924
0.00578505
0.00113841
-0.00232476
0.00598885
0.000924223
0.00622644
0.000634473
-0.000425032
0.00359625
0.000762193
-0.00109173
0.0055
0.00110973
-0.00166636
0.005813
0.00107741
-0.00207587
0.00600694
0.000911263
0.00624318
0.000674294
-0.000338294
0.00347579
0.00063659
-0.000932862
0.00548666
0.00100516
-0.00145893
0.00581071
0.00100572
-0.00184308
0.00599404
0.000879221
0.00622675
0.000686302
-0.000260561
0.00333812
0.000521462
-0.000786361
0.00544715
0.000902206
-0.00126621
0.00578521
0.00092861
-0.00162527
0.00595827
0.000834618
0.00618634
0.00067839
-0.000190688
0.00318629
0.000418522
-0.000650874
0.00538562
0.000803732
-0.00108648
0.00574147
0.000850245
-0.00142047
0.00590541
0.000782989
0.00612847
0.00065758
-0.000127282
0.00302154
0.000328675
-0.000524772
0.00530415
0.000711006
-0.000917479
0.00568259
0.000773672
-0.00122609
0.00583905
0.000728586
0.00605723
0.000629573
-6.95927e-05
0.0028427
0.000252442
-0.000405782
0.00520286
0.000624356
-0.000756573
0.00560964
0.000700664
-0.00103915
0.00576087
0.000674417
0.00597453
0.000598651
-1.94893e-05
0.00265354
0.000187863
-0.000291768
0.00507744
0.000544133
-0.000600594
0.00552215
0.000632157
-0.000856311
0.00567077
0.000622349
0.00588048
0.000567824
2.22626e-05
0.00246169
0.000132478
-0.000181216
0.0049208
0.000470414
-0.00044647
0.00541807
0.000568643
-0.000673934
0.00556725
0.000573496
0.00577333
0.000538807
5.94739e-05
0.00226734
8.63182e-05
-7.358e-05
0.00472993
0.00040261
-0.000291617
0.00529328
0.000509779
-0.000488507
0.00544782
0.000528484
0.00564993
0.000512497
9.52311e-05
0.002066
4.83786e-05
3.09106e-05
0.00450599
0.000340456
-0.000133695
0.00514067
0.000454944
-0.000296913
0.00530917
0.000487329
0.00550641
0.000489429
0.000129889
0.00185369
1.68319e-05
0.000133118
0.00424913
0.000283414
2.80603e-05
0.00495393
0.000403298
-9.69669e-05
0.00514685
0.000449626
0.00533819
0.000469634
0.000163403
0.00162682
-9.85709e-06
0.000233929
0.00395475
0.000231162
0.000192845
0.00472879
0.000354333
0.000112822
0.00495554
0.000413896
0.00514196
0.000451635
0.000196278
0.0013811
-3.23266e-05
0.000333842
0.00361724
0.000182838
0.000359842
0.00446068
0.000307387
0.000330945
0.00473033
0.000379372
0.00491466
0.000434085
0.000229598
0.0011112
-5.11406e-05
0.000432414
0.0032341
0.000137665
0.00052697
0.00414597
0.00026139
0.000554528
0.00446633
0.00034482
0.00465199
0.000415848
0.000263558
0.000809425
-6.83309e-05
0.000527697
0.00280373
9.44243e-05
0.000691685
0.0037765
0.000214771
0.000778799
0.00415909
0.000307674
0.00435117
0.000393897
0.000297576
0.000466051
-8.81857e-05
0.000616874
0.00232471
5.05448e-05
0.000850049
0.00334352
0.000164977
0.000997657
0.00380373
0.000264672
0.00401047
0.000364332
0.00033616
6.98325e-05
-0.000110237
0.000696363
0.00181063
2.77562e-06
0.000992432
0.00285121
0.00010987
0.00120279
0.00338749
0.0002127
0.00362757
0.000320919
0.000354524
-0.000311568
-0.000162992
0.000749099
0.00128872
-5.65703e-05
0.00110118
0.00231658
4.57384e-05
0.00137808
0.00290489
0.000148941
0.00319318
0.000259691
0.000328843
-0.000591499
-0.000216047
0.000759167
0.00078293
-0.000120356
0.00115696
0.00177035
-2.75262e-05
0.00149817
0.002376
7.31484e-05
0.00269891
0.000180647
0.000269296
-0.000781513
-0.000190356
0.000720303
0.000304436
-0.000154491
0.0011476
0.00124429
-9.7323e-05
0.00153721
0.0018405
-1.44859e-05
0.00216451
8.08199e-05
0.000185761
-0.000883498
-0.000138691
0.000618304
-0.00011226
-0.000172938
0.00105731
0.000765144
-0.000161041
0.0014746
0.00133614
-0.000110956
0.00163865
-4.27129e-05
8.41224e-05
-0.00087352
-0.000120591
0.000439213
-0.000393967
-0.000215994
0.000868437
0.000362955
-0.000226257
0.00129381
0.000888411
-0.000214053
0.00115558
-0.00018744
-4.58821e-05
-0.00073098
-0.000124265
0.0001739
-0.000495168
-0.000261817
0.000566912
4.46182e-05
-0.000293499
0.000981697
0.000507702
-0.000333894
0.000713337
-0.000359479
-0.000206515
-0.000435759
-0.000150716
-0.000214248
-0.000373268
-0.000286016
7.43623e-05
-0.00012315
-0.000396667
0.000524481
0.00016437
-0.000517378
0.000303737
-0.00059894
-0.000363834
-0.000174999
-0.000607123
-0.000373096
-0.000543049
-0.000580939
-0.000149108
-0.000781183
-0.000956761
1.96876e-05
-0.000107517
0.000442543
-0.000296341
0.000176091
0.000719349
-0.00081844
0.00037706
0.000863794
-0.00138596
0.000433263
0.00105343
0.000411764
0.00128367
-0.000743373
0.000376149
0.00101118
-0.00145942
0.000712659
0.00116413
-0.00209786
0.000884224
0.00123351
-0.0026802
0.000908215
0.00134514
0.000795741
0.00144501
-0.000872098
0.00098304
0.00117465
-0.00162345
0.00128487
0.0012551
-0.0022617
0.00142424
0.00119768
-0.00280562
0.001416
0.00109414
0.00123759
0.000894884
-0.000754407
0.00148691
0.00130437
-0.00146716
0.00181882
0.00129055
-0.0020786
0.00192999
0.00103923
-0.00260076
0.00187979
0.00064623
0.00165137
5.51059e-05
-0.00066175
0.0019084
0.00144835
-0.00135563
0.00231065
0.00135811
-0.00198436
0.00241005
0.000946962
-0.00255291
0.00233457
0.00035537
0.00208278
-0.000421115
-0.000628934
0.00229291
0.00159788
-0.0013418
0.00279082
0.00146187
-0.00201126
0.00290087
0.000943754
-0.00262751
0.00283429
0.00023152
0.00260024
-0.000616529
-0.000627636
0.00265834
0.00172602
-0.00137063
0.00326656
0.0015766
-0.00207035
0.00339933
0.000999878
-0.00269612
0.0033581
0.000226097
0.00315387
-0.000626909
-0.000631381
0.00300433
0.00181597
-0.00139919
0.00373264
0.00168434
-0.00211349
0.00389258
0.00108733
-0.00272852
0.00388352
0.000287662
0.00371483
-0.000560326
-0.000621188
0.00331925
0.00185962
-0.00139731
0.00417608
0.00177313
-0.0021068
0.00436298
0.00118589
-0.00269446
0.00438779
0.000384505
0.00426296
-0.000463288
-0.000589182
0.00358807
0.00185619
-0.00135186
0.00458163
0.0018356
-0.0020362
0.00479066
0.00128556
-0.00257951
0.00484505
0.000506413
0.0047667
-0.000332094
-0.000537147
0.00379902
0.00180919
-0.0012661
0.0049375
0.00186669
-0.00190943
0.00515914
0.00137921
-0.00239569
0.00523305
0.000646112
0.0051921
-0.000163065
-0.000471457
0.00394602
0.00172425
-0.00115236
0.00523647
0.00186545
-0.00174202
0.00546167
0.0014515
-0.00216531
0.00553551
0.000798937
0.00550398
5.00386e-05
-0.000401467
0.004031
0.00160859
-0.00102928
0.00547926
0.001832
-0.00156642
0.00570471
0.00149299
-0.00193405
0.00576726
0.00092421
0.0057291
0.000259463
-0.000333538
0.00406063
0.001471
-0.00090816
0.00567031
0.00176973
-0.00139915
0.00589774
0.00150247
-0.00172487
0.0059458
0.00101431
0.00589746
0.000430371
-0.000271263
0.00404371
0.00132074
-0.000794947
0.00581548
0.00168428
-0.00124757
0.00605
0.00148312
-0.00154599
0.00608602
0.0010696
0.0060334
0.000563325
-0.000216024
0.00398921
0.00116614
-0.000691423
0.00592057
0.00158196
-0.00111136
0.00616882
0.00143952
-0.00139083
0.00619718
0.00109254
0.00614624
0.000655074
-0.000167849
0.0039052
0.00101405
-0.000597371
0.0059908
0.00146902
-0.000988317
0.00625976
0.00137741
-0.00125398
0.00628534
0.00108876
0.00624176
0.000711685
-0.000126034
0.00379824
0.000869586
-0.000511569
0.00603049
0.001351
-0.000875691
0.00632699
0.00130261
-0.00113022
0.00635444
0.00106466
0.0063231
0.000740739
-8.95727e-05
0.00367319
0.000736086
-0.000432284
0.00604299
0.00123242
-0.000770432
0.00637346
0.00122029
-0.00101432
0.0064068
0.00102614
0.00639126
0.000749012
-5.73218e-05
0.00353355
0.000615482
-0.000357675
0.00603052
0.00111655
-0.000669724
0.00640106
0.00113469
-0.00090203
0.00644363
0.000978464
0.00644623
0.000742881
-2.831e-05
0.00338215
0.000508392
-0.000286062
0.00599378
0.0010055
-0.00057111
0.00641077
0.00104901
-0.000790103
0.00646529
0.000925918
0.00648745
0.000727728
-3.03365e-06
0.00322361
0.000414016
-0.00021573
0.00593
0.00090083
-0.000472303
0.0064026
0.000965408
-0.000675839
0.00647148
0.000871764
0.00651382
0.000707812
1.89921e-05
0.00306066
0.000331812
-0.000145264
0.00583552
0.000802868
-0.000371175
0.00637545
0.000885211
-0.00055683
0.00646123
0.000818248
0.00652368
0.000686263
4.02753e-05
0.00289196
0.000260906
-7.37535e-05
0.00570841
0.000711558
-0.00026593
0.00632712
0.000809155
-0.000430909
0.00643292
0.000766793
0.00651472
0.000665194
6.26257e-05
0.00271522
0.00020043
-1.24559e-06
0.00554878
0.000626109
-0.000154792
0.0062526
0.000737847
-0.000295961
0.00638438
0.000718189
0.00648414
0.000645882
8.62275e-05
0.00252785
0.00014952
7.26704e-05
0.00535657
0.000546217
-3.66168e-05
0.00614634
0.000670489
-0.000150189
0.00631262
0.000672662
0.00642891
0.000628874
0.000110961
0.00232675
0.000106972
0.000149033
0.00512998
0.000471933
8.84507e-05
0.0060043
0.000605915
7.5237e-06
0.00621392
0.000629251
0.0063461
0.000613827
0.000136917
0.00210868
7.13028e-05
0.000227735
0.00486717
0.000403154
0.00022009
0.00582259
0.000543691
0.00017735
0.00608398
0.000586583
0.00623237
0.000598809
0.000163899
0.00187152
4.09287e-05
0.000308022
0.00456636
0.000339529
0.000357189
0.00559744
0.000483371
0.000358621
0.00591803
0.000543883
0.00608426
0.000582176
0.000191499
0.00161429
1.45979e-05
0.000388668
0.00422639
0.00028047
0.000497424
0.00532578
0.0004243
0.000548824
0.00571141
0.000500044
0.00589779
0.000562388
0.000219257
0.0013357
-9.0057e-06
0.0004679
0.00384691
0.00022526
0.000637268
0.00500537
0.00036581
0.000743131
0.00545998
0.00045324
0.00566985
0.000536237
0.000246685
0.00103146
-3.06271e-05
0.000543391
0.00342745
0.000173302
0.000772095
0.00463424
0.000307404
0.00093529
0.00515969
0.000401766
0.00539685
0.00050057
0.000273156
0.000696788
-4.87202e-05
0.000612772
0.00296553
0.000125078
0.000895784
0.00421228
0.000248812
0.00111577
0.0048081
0.0003443
0.0050779
0.000450523
0.00029821
0.000302652
-6.70655e-05
0.000670898
0.00245854
7.77343e-05
0.0010005
0.00373874
0.000189675
0.0012736
0.00440308
0.000280876
0.00471138
0.000384947
0.000316876
-0.00013204
-9.82298e-05
0.000707336
0.0019195
2.82165e-05
0.00107544
0.00321352
0.000129596
0.00139673
0.00394255
0.000212385
0.00429331
0.000306157
0.00028171
-0.000473928
-0.000130177
0.000697971
0.00136762
-1.88685e-05
0.00110046
0.00264469
6.90174e-05
0.00146781
0.00342084
0.000139876
0.00381513
0.000216387
0.000200711
-0.000665986
-0.000147344
0.000631387
0.000830758
-6.67495e-05
0.00105603
0.00205537
3.63131e-06
0.00146221
0.00284354
6.01629e-05
0.00326456
0.00011696
0.000106762
-0.000730282
-0.000163055
0.000505676
0.000350105
-0.000134254
0.000925415
0.00148184
-7.24616e-05
0.0013524
0.00223348
-3.09801e-05
0.00264322
3.21378e-06
-2.9036e-05
-0.00065132
-0.000174191
0.000271758
-1.43374e-05
-0.000198168
0.000674695
0.000937781
-0.00015238
0.00110889
0.00159865
-0.000133258
0.00194352
-0.000125109
-0.00022398
-0.000409132
-0.000168922
-0.00014827
-0.000143251
-0.000232811
0.000221566
0.000414132
-0.000242853
0.000689814
0.000869247
-0.000256223
0.00110562
-0.000277806
-0.000441953
-0.000142178
-0.000703297
-0.000255002
-0.000540404
-0.0003297
-4.58037e-05
-0.000406536
-0.000476922
5.07504e-05
2.35558e-05
0.000368237
-0.000208826
0.000351135
0.000627791
-0.000690269
0.000597249
0.000747989
-0.00122792
0.000716596
0.000874477
0.000770561
0.00103965
-0.000515509
0.000602982
0.000947261
-0.00107834
0.00103986
0.00103824
-0.0016371
0.00134398
0.00104554
-0.00219034
0.00152471
0.00109027
0.0015852
0.00113845
-0.000585196
0.00126553
0.00109729
-0.0011514
0.0017315
0.00112966
-0.00168907
0.00206827
0.00101107
-0.0022109
0.00227451
0.000866168
0.00229859
0.000675677
-0.000422819
0.00180471
0.00118801
-0.000899147
0.0023318
0.00116658
-0.00137684
0.00267651
0.000908682
-0.00187128
0.00285139
0.000563792
0.00275525
0.000106767
-0.0002505
0.00222567
0.00127789
-0.000629823
0.00283995
0.00122929
-0.00107363
0.00319258
0.000874696
-0.00159865
0.00333019
0.00040158
0.0031046
-0.000188595
-0.000117516
0.00256931
0.00137175
-0.000417335
0.00328885
0.00131279
-0.000839852
0.0036555
0.00090335
-0.00141342
0.00377693
0.000358354
0.00347685
-0.000303481
-2.66635e-05
0.00286723
0.00145476
-0.00026262
0.00369837
0.00140303
-0.000653195
0.00408288
0.000963073
-0.00124315
0.00420799
0.000384988
0.00388138
-0.00028276
3.3611e-05
0.00313517
0.00151442
-0.000150259
0.00407723
0.00148935
-0.000495654
0.00448125
0.00103436
-0.00107157
0.00462768
0.000443891
0.00431032
-0.000202547
7.9134e-05
0.00337285
0.00154282
-5.92954e-05
0.00442676
0.00156203
-0.000343929
0.00484598
0.0011058
-0.000869292
0.00502534
0.000512208
0.00474831
-0.000127921
0.000119945
0.00357231
0.00153678
2.53827e-05
0.00474318
0.00161375
-0.00018269
0.00516543
0.00117418
-0.000616454
0.00537841
0.000587108
0.00515293
-3.98299e-05
0.000158569
0.00372588
0.00149705
0.000108198
0.00502064
0.0016396
-1.61148e-05
0.00543226
0.0012367
-0.000319492
0.00566146
0.000666437
0.00548424
6.46884e-05
0.000193415
0.00382932
0.0014274
0.000185367
0.00525466
0.00163947
0.000137776
0.00564774
0.00128361
-1.62688e-05
0.00585815
0.000756295
0.00570756
0.000195649
0.00021993
0.00388484
0.00133313
0.000245756
0.00544755
0.00161328
0.000249716
0.00582624
0.00131053
0.000204203
0.0059985
0.000829369
0.00586445
0.000317559
0.000236758
0.00389802
0.00122107
0.000287468
0.00560317
0.0015634
0.000322226
0.00597803
0.00131591
0.000344118
0.00610822
0.000882691
0.00597837
0.000412962
0.000244784
0.00387553
0.00109845
0.000313149
0.00572519
0.00149389
0.000364717
0.00610902
0.00130056
0.000424124
0.00620282
0.00091559
0.00606997
0.000484648
0.000245655
0.00382408
0.00097193
0.000326478
0.00581691
0.00140942
0.000385871
0.00622235
0.00126681
0.000462148
0.00629037
0.000928714
0.00615489
0.000535182
0.00024133
0.0037497
0.000847105
0.000331473
0.00588093
0.00131485
0.000393869
0.00631919
0.00121818
0.000475374
0.00637311
0.000924519
0.00623902
0.000567908
0.000233731
0.00365732
0.000728235
0.000331802
0.00591925
0.00121461
0.000395488
0.00639955
0.00115856
0.000476796
0.00645026
0.000906198
0.00632289
0.000585774
0.000224515
0.0035507
0.000618197
0.000330434
0.00593328
0.00111247
0.000395731
0.00646289
0.00109166
0.000475047
0.0065199
0.000877191
0.00640468
0.000591772
0.000215037
0.00343248
0.000518664
0.000329673
0.00592383
0.00101136
0.00039823
0.00650829
0.00102073
0.000476156
0.00657964
0.000840796
0.00648134
0.000588902
0.000206342
0.00330428
0.000430248
0.000331226
0.00589105
0.000913399
0.000405508
0.00653459
0.000948433
0.000484038
0.00662703
0.000799999
0.00654967
0.000580245
0.000198914
0.00316689
0.000352493
0.00033636
0.00583426
0.00082018
0.00041933
0.00654025
0.000876776
0.000501176
0.00665963
0.000757312
0.00660655
0.000568567
0.000193369
0.0030205
0.000284828
0.000345995
0.00575187
0.000732626
0.000440953
0.00652331
0.000807193
0.000529165
0.006675
0.000714668
0.00664906
0.000556167
0.000190347
0.00286422
0.000226843
0.000360801
0.00564193
0.000651052
0.000471285
0.00648138
0.0007406
0.000569141
0.00667053
0.000673409
0.00667426
0.000544717
0.000190342
0.00269637
0.000177937
0.000381033
0.00550215
0.000575192
0.000510965
0.00641165
0.000677645
0.00062198
0.00664339
0.00063431
0.00667906
0.000535189
0.000193573
0.00251505
0.000137275
0.000406955
0.00533026
0.000504729
0.000560247
0.00631059
0.000618258
0.000688237
0.00659046
0.000597605
0.00666021
0.000527876
0.000200007
0.00231827
0.000103745
0.000438687
0.00512391
0.000439599
0.000619123
0.00617427
0.0005618
0.000768058
0.00650802
0.000562752
0.00661421
0.00052228
0.000209363
0.00210419
7.60208e-05
0.000475831
0.00488094
0.000379656
0.000687269
0.00599876
0.000507767
0.000861405
0.0063917
0.000528772
0.00653666
0.000517004
0.000221092
0.00187145
5.25704e-05
0.000517381
0.00459967
0.000324513
0.000763363
0.00578044
0.000455711
0.000967216
0.00623699
0.000494738
0.00642288
0.00051028
0.000234506
0.00161958
3.19673e-05
0.000561779
0.0042792
0.000273663
0.000845135
0.00551621
0.000405168
0.00108326
0.00603924
0.000459671
0.00626755
0.000500383
0.000248743
0.00134896
1.28695e-05
0.000606667
0.00391992
0.000226619
0.000928769
0.00520424
0.000355687
0.00120458
0.00579455
0.000422127
0.0060664
0.000484162
0.000262624
0.0010579
-2.19556e-06
0.000648953
0.00352297
0.000183923
0.00100939
0.00484377
0.000307426
0.00132531
0.00549917
0.000381227
0.00581393
0.000459343
0.000275191
0.000745103
-1.1109e-05
0.000684753
0.00309112
0.000147362
0.00107966
0.00443656
0.000261121
0.0014345
0.00515252
0.000336109
0.00551005
0.000421508
0.00028562
0.000392766
-3.48312e-07
0.000709068
0.00262602
0.000119389
0.0011313
0.00398555
0.000218452
0.00152132
0.00475552
0.000287854
0.00515499
0.000370719
0.000296361
-2.51953e-05
2.33709e-05
0.000717251
0.00213475
9.86017e-05
0.00115562
0.00349549
0.00018129
0.00157509
0.00430948
0.000238954
0.00474712
0.000310252
0.000260292
-0.000385196
-3.04671e-05
0.000688802
0.00162336
6.40079e-05
0.00113713
0.00297006
0.000146108
0.0015806
0.00381462
0.000191275
0.00428319
0.000244815
0.00017182
-0.000588357
-0.000116003
0.000609245
0.00110377
1.54211e-05
0.00106181
0.0024169
0.000104226
0.00152165
0.00327057
0.000144366
0.00375619
0.000181246
6.60081e-05
-0.000657348
-0.000160072
0.000476861
0.000602432
-4.37697e-05
0.000914033
0.00185378
5.349e-05
0.00137687
0.00267589
0.000100863
0.00314951
0.000127832
-6.92428e-05
-0.000591
-0.000171295
0.000236429
0.000190243
-9.16501e-05
0.000656769
0.00127429
6.77104e-06
0.00111636
0.00201242
7.06239e-05
0.00241777
0.000103852
-0.000242832
-0.000383807
-0.000133283
-0.000178025
-1.14311e-05
-9.59431e-05
0.000202209
0.000662273
-1.10721e-05
0.000693261
0.00117754
8.76121e-05
0.00145975
0.000135626
-0.000491169
-3.48165e-05
-0.000775561
1.79602e-05
-0.000581096
0.000138109
-5.7461e-05
0.000247366
0.000331821
9.52636e-05
9.22302e-05
0.000180743
-3.87719e-05
0.000426396
0.000335431
-0.000428509
0.000711498
0.000426229
-0.000922621
0.000882358
0.000486232
0.000997616
0.000561872
-0.000211845
0.000703171
0.000548166
-0.000583264
0.00118839
0.000647665
-0.0010494
0.00158363
0.000639545
-0.00158606
0.00187664
0.000632647
0.00206249
0.000631629
-0.000218677
0.00136883
0.000650308
-0.000563961
0.00192995
0.000733383
-0.00100897
0.00240133
0.00063837
-0.00154699
0.0027713
0.000509538
0.0029772
0.000369276
-5.06116e-05
0.00191773
0.000689731
-0.000264998
0.00255416
0.000756749
-0.000615755
0.00306106
0.000599709
-0.00110107
0.003441
0.000379404
0.00356808
0.000120733
0.000136586
0.00234431
0.000714721
8.47969e-05
0.00305782
0.000777424
-0.000151263
0.00358181
0.00059001
-0.000591785
0.00395398
0.00032913
0.00397074
4.80262e-05
0.000300322
0.00267469
0.000741047
0.000395937
0.00347614
0.000798851
0.000282702
0.00400417
0.000594222
-0.000116571
0.00438368
0.000327925
0.00434658
4.72733e-05
0.00042882
0.00293507
0.000765566
0.000651648
0.00383247
0.000823873
0.000655814
0.00436093
0.000602149
0.000335898
0.00475292
0.000335658
0.00474345
8.35511e-05
0.000522811
0.0031446
0.000782073
0.000852922
0.00414231
0.0008494
0.000964536
0.00467127
0.000612407
0.000752318
0.00507117
0.000337861
0.00514842
0.000135468
0.000589062
0.00331228
0.000786078
0.00100874
0.00441311
0.000871554
0.00122018
0.00494218
0.000623447
0.00112422
0.00534235
0.000336987
0.00550616
0.000151053
0.00063471
0.00343904
0.000775308
0.00112901
0.00464566
0.000886903
0.00143905
0.00517099
0.000635333
0.00147499
0.00555652
0.000336992
0.00577116
0.000142588
0.000663163
0.00352337
0.000749559
0.00121669
0.00483885
0.000892885
0.00161918
0.0053566
0.000648601
0.00178802
0.00570948
0.000344634
0.00592622
0.000134199
0.000675695
0.00356475
0.000710319
0.00127306
0.0049924
0.000888564
0.00175238
0.00549892
0.000661967
0.0020501
0.00580137
0.000366682
0.00596372
0.0001526
0.000670714
0.00356779
0.000659388
0.00129231
0.00511221
0.000871864
0.00182026
0.00561228
0.000669222
0.00220357
0.00586257
0.00038486
0.0059665
0.000160248
0.000650177
0.00353883
0.000599846
0.00127879
0.00520411
0.000842889
0.00183146
0.00570707
0.000668455
0.0022665
0.00591165
0.000398576
0.00596113
0.000166027
0.000617795
0.00348421
0.000535278
0.00124028
0.00527244
0.000803071
0.00179997
0.00578911
0.000658831
0.00226105
0.00595914
0.000407025
0.00596338
0.000172223
0.000577408
0.00340961
0.000469124
0.00118448
0.00532021
0.000754586
0.00173862
0.00586121
0.000640568
0.00220732