/*--------------------------------*- C++ -*----------------------------------*\
| =========                 |                                                 |
| \\      /  F ield         | OpenFOAM: The Open Source CFD Toolbox           |
|  \\    /   O peration     | Version:  2.3.1                                 |
|   \\  /    A nd           | Web:      www.OpenFOAM.org                      |
|    \\/     M anipulation  |                                                 |
\*---------------------------------------------------------------------------*/
FoamFile
{
    version     2.0;
    format      ascii;
    class       volScalarField;
    location    "600";
    object      T;
}
// * * * * * * * * * * * * * * * * * * * * * * * * * * * * * * * * * * * * * //

dimensions      [0 0 0 1 0 0 0];

internalField   nonuniform List<scalar> 
6852
(
289.15
289.15
289.15
289.15
289.15
289.15
289.15
289.15
289.15
289.15
289.15
289.15
289.15
289.15
289.15
289.15
289.15
289.15
289.15
289.15
289.15
289.15
289.15
289.15
289.15
289.15
289.15
289.15
289.15
289.15
289.15
289.15
289.15
289.15
289.15
289.15
289.15
289.15
289.15
289.15
289.15
289.15
289.15
289.15
289.15
289.15
289.15
289.15
289.15
289.15
289.15
289.15
289.15
289.15
289.15
289.15
289.15
289.15
289.15
289.15
289.15
289.15
289.15
289.15
289.15
289.15
289.15
289.15
289.15
289.15
289.15
289.15
289.15
289.15
289.15
289.15
289.15
289.15
289.15
289.15
289.15
289.15
289.15
289.15
289.15
289.15
289.15
289.15
289.15
289.15
289.15
289.15
289.15
289.15
289.15
289.15
289.15
289.15
289.15
289.15
289.15
289.15
289.15
289.15
289.15
289.15
289.15
289.15
289.15
289.15
289.15
289.15
289.15
289.15
289.15
289.15
289.15
289.15
289.15
289.15
289.15
289.15
289.15
289.15
289.15
289.15
289.15
289.15
289.15
289.15
289.15
289.15
289.15
289.15
289.15
289.15
289.15
289.15
289.15
289.15
289.15
289.15
289.15
289.15
289.15
289.15
289.15
289.15
289.15
289.15
289.15
289.15
289.15
289.15
289.15
289.15
289.15
289.15
289.15
289.15
289.15
289.15
289.15
289.15
289.15
289.15
289.15
289.15
289.15
289.15
289.15
289.15
289.15
289.15
289.15
289.15
289.15
289.15
289.15
289.15
289.15
289.15
289.15
289.15
289.15
289.15
289.15
289.15
289.15
289.15
289.15
289.15
289.15
289.15
289.15
289.15
289.15
289.15
289.15
289.15
289.15
289.15
289.15
289.15
289.15
289.15
289.15
289.15
289.15
289.15
289.15
289.15
289.15
289.15
289.15
289.15
289.15
289.15
289.15
289.15
289.15
289.15
289.15
289.15
289.15
289.15
289.15
289.15
289.15
289.15
289.15
289.15
289.15
289.15
289.15
289.15
289.15
289.15
289.15
289.15
289.15
289.15
289.15
289.15
289.15
289.15
289.15
289.15
289.15
289.15
289.15
289.15
289.15
289.15
289.15
289.15
289.15
289.15
289.15
289.15
289.15
289.15
289.15
289.15
289.15
289.15
289.15
289.15
289.15
289.15
289.15
289.15
289.15
289.15
289.15
289.15
289.15
289.15
289.15
289.15
289.15
289.15
289.15
289.15
289.15
289.15
289.15
289.15
289.15
289.15
289.15
289.15
289.15
289.15
289.15
289.15
289.15
289.15
289.15
289.15
289.15
289.15
289.15
289.15
289.15
289.15
289.15
289.15
289.15
289.15
289.15
289.15
289.15
289.15
289.15
289.15
289.15
289.15
289.15
289.15
289.15
289.15
289.15
289.15
289.15
289.15
289.15
289.15
289.15
289.15
289.15
289.15
289.15
289.15
289.15
289.15
289.15
289.15
289.15
289.15
289.15
289.15
289.15
289.15
289.15
289.15
289.15
289.15
289.15
289.15
289.15
289.15
289.15
289.15
289.15
289.15
289.15
289.15
289.15
289.15
289.15
289.15
289.15
289.15
289.15
289.15
289.15
289.15
289.15
289.15
289.15
289.15
289.15
289.15
289.15
289.15
289.15
289.15
289.15
289.15
289.15
289.15
289.15
289.15
289.15
289.15
289.15
289.15
289.15
289.15
289.15
289.15
289.15
289.15
289.15
289.15
289.15
289.15
289.15
289.15
289.15
289.15
289.15
289.15
289.15
289.15
289.15
289.15
289.15
289.15
289.15
289.15
289.15
289.15
289.15
289.15
289.15
289.15
289.15
289.15
289.15
289.15
289.15
289.15
289.15
289.15
289.15
289.15
289.15
289.15
289.15
289.15
289.15
289.15
289.15
289.15
289.15
289.15
289.15
289.15
289.15
289.15
289.15
289.15
289.15
289.15
289.15
289.15
289.15
289.15
289.15
289.15
289.15
289.15
289.15
289.15
289.15
289.15
289.15
289.15
289.15
289.15
289.15
289.15
289.15
289.15
289.15
289.15
289.15
289.15
289.15
289.15
289.15
289.15
289.15
289.15
289.15
289.15
289.15
289.15
289.15
289.15
289.15
289.15
289.15
289.15
289.15
289.15
289.15
289.15
289.15
289.15
289.15
289.15
289.15
289.15
289.15
289.15
289.15
289.15
289.15
289.15
289.15
289.15
289.15
289.15
289.15
289.15
289.15
289.15
289.15
289.15
289.15
289.15
289.15
289.15
289.15
289.15
289.15
289.15
289.15
289.15
289.15
289.15
289.15
289.15
289.15
289.15
289.15
289.15
289.15
289.15
289.15
289.15
289.15
289.15
289.15
289.15
289.15
289.15
289.15
289.15
289.15
289.15
289.15
289.15
289.15
289.15
289.15
289.15
289.15
289.15
289.15
289.15
289.15
289.15
289.15
289.15
289.15
289.15
289.15
289.15
289.15
289.15
289.15
289.15
289.15
289.15
289.15
289.15
289.15
289.15
289.15
289.15
289.15
289.15
289.15
289.15
289.15
289.15
289.15
289.15
289.15
289.15
289.15
289.15
289.15
289.15
289.15
289.15
289.15
289.15
289.15
289.15
289.15
289.15
289.15
289.15
289.15
289.15
289.15
289.15
289.15
289.15
289.15
289.15
289.15
289.15
289.15
289.15
289.15
289.15
289.15
289.15
289.15
289.15
289.15
289.15
289.15
289.15
289.15
289.15
289.15
289.15
289.15
289.15
289.15
289.15
289.15
289.15
289.15
289.15
289.15
289.15
289.15
289.15
289.15
289.15
289.15
289.15
289.15
289.15
289.15
289.15
289.15
289.15
289.15
289.15
289.15
289.15
289.15
289.15
289.15
289.15
289.15
289.15
289.15
289.15
289.15
289.15
289.15
289.15
289.15
289.15
289.15
289.15
289.15
289.15
289.15
289.15
289.15
289.15
289.15
289.15
289.15
289.15
289.15
289.15
289.15
289.15
289.15
289.15
289.15
289.15
289.15
289.15
289.15
289.15
289.15
289.15
289.15
289.15
289.15
289.15
289.15
289.15
289.15
289.15
289.15
289.15
289.15
289.15
289.15
289.15
289.15
289.15
289.15
289.15
289.15
289.15
289.15
289.15
289.15
289.15
289.15
289.15
289.15
289.15
289.15
289.15
289.15
289.15
289.15
289.15
289.15
289.15
289.15
289.15
289.15
289.15
289.15
289.15
289.15
289.15
289.15
289.15
289.15
289.15
289.15
289.15
289.15
289.15
289.15
289.15
289.15
289.15
289.15
289.15
289.15
289.15
289.15
289.15
289.15
289.15
289.15
289.15
289.15
289.15
289.15
289.15
289.15
289.15
289.15
289.15
289.15
289.15
289.15
289.15
289.15
289.15
289.15
289.15
289.15
289.15
289.15
289.15
289.15
289.15
289.15
289.15
289.15
289.15
289.15
289.15
289.15
289.15
289.15
289.15
289.15
289.15
289.15
289.15
289.15
289.15
289.15
289.15
289.15
289.15
289.15
289.15
289.15
289.15
289.15
289.15
289.15
289.15
289.15
289.15
289.15
289.15
289.15
289.15
289.15
289.15
289.15
289.15
289.15
289.15
289.15
289.15
289.15
289.15
289.15
289.15
289.15
289.15
289.15
289.15
289.15
289.15
289.15
289.15
289.15
289.15
289.15
289.15
289.15
289.15
289.15
289.15
289.15
289.15
289.15
289.15
289.15
289.15
289.15
289.15
289.15
289.15
289.15
289.15
289.15
289.15
289.15
289.15
289.15
289.15
289.15
289.15
289.15
289.15
289.15
289.15
289.15
289.15
289.15
289.15
289.15
289.15
289.15
289.15
289.15
289.15
289.15
289.15
289.15
289.15
289.15
289.15
289.15
289.15
289.15
289.15
289.15
289.15
289.15
289.15
289.15
289.15
289.15
289.15
289.15
289.15
289.15
289.15
289.15
289.15
289.15
289.15
289.15
289.15
289.15
289.15
289.15
289.15
289.15
289.15
289.15
289.15
289.15
289.15
289.15
289.15
289.15
289.15
289.15
289.15
289.15
289.15
289.15
289.15
289.15
289.15
289.15
289.15
289.15
289.15
289.15
289.15
289.15
289.15
289.15
289.15
289.15
289.15
289.15
289.15
289.15
289.15
289.15
289.15
289.15
289.15
289.15
289.15
289.15
289.15
289.15
289.15
289.15
289.15
289.15
289.15
289.15
289.15
289.15
289.15
289.15
289.15
289.15
289.15
289.15
289.15
289.15
289.15
289.15
289.15
289.15
289.15
289.15
289.15
289.15
289.15
289.15
289.15
289.15
289.15
289.15
289.15
289.15
289.15
289.15
289.15
289.15
289.15
289.15
289.15
289.15
289.15
289.15
289.15
289.15
289.15
289.15
289.15
289.15
289.15
289.15
289.15
289.15
289.15
289.15
289.15
289.15
289.15
289.15
289.15
289.15
289.15
289.15
289.15
289.15
289.15
289.15
289.15
289.15
289.15
289.15
289.15
289.15
289.15
289.15
289.15
289.15
289.15
289.15
289.15
289.15
289.15
289.15
289.15
289.15
289.15
289.15
289.15
289.15
289.15
289.15
289.15
289.15
289.15
289.15
289.15
289.15
289.15
289.15
289.15
289.15
289.15
289.15
289.15
289.15
289.15
289.15
289.15
289.15
289.15
289.15
289.15
289.15
289.15
289.15
289.15
289.15
289.15
289.15
289.15
289.15
289.15
289.15
289.15
289.15
289.15
289.15
289.15
289.15
289.15
289.15
289.15
289.15
289.15
289.15
289.15
289.15
289.15
289.15
289.15
289.15
289.15
289.15
289.15
289.15
289.15
289.15
289.15
289.15
289.15
289.15
289.15
289.15
289.15
289.15
289.15
289.15
289.15
289.15
289.15
289.15
289.15
289.15
289.15
289.15
289.15
289.15
289.15
289.15
289.15
289.15
289.15
289.15
289.15
289.15
289.15
289.15
289.15
289.15
289.15
289.15
289.15
289.15
289.15
289.15
289.15
289.15
289.15
289.15
289.15
289.15
289.15
289.15
289.15
289.15
289.15
289.15
289.15
289.15
289.15
289.15
289.15
289.15
289.15
289.15
289.15
289.15
289.15
289.15
289.15
289.15
289.15
289.15
289.15
289.15
289.15
289.15
289.15
289.15
289.15
289.15
289.15
289.15
289.15
289.15
289.15
289.15
289.15
289.15
289.15
289.15
289.15
289.15
289.15
289.15
289.15
289.15
289.15
289.15
289.15
289.15
289.15
289.15
289.15
289.15
289.15
289.15
289.15
289.15
289.15
289.15
289.15
289.15
289.15
289.15
289.15
289.15
289.15
289.15
289.15
289.15
289.15
289.15
289.15
289.15
289.15
289.15
289.15
289.15
289.15
289.15
289.15
289.15
289.15
289.15
289.15
289.15
289.15
289.15
289.15
289.15
289.15
290.192
290.193
290.194
290.196
290.19
290.191
290.192
290.195
290.187
290.187
290.189
290.191
290.183
290.183
290.183
290.185
290.19
290.178
290.177
290.176
290.177
290.183
290.173
290.171
290.169
290.17
290.177
290.168
290.165
290.162
290.162
290.17
290.163
290.159
290.154
290.154
290.163
290.159
290.153
290.146
290.145
290.154
290.153
290.147
290.138
290.135
290.145
290.148
290.141
290.13
290.125
290.133
290.143
290.135
290.121
290.114
290.12
290.138
290.13
290.113
290.102
290.105
290.133
290.124
290.105
290.091
290.089
290.128
290.118
290.098
290.08
290.072
290.122
290.112
290.09
290.069
290.056
290.116
290.106
290.083
290.059
290.04
290.111
290.1
290.075
290.048
290.025
290.104
290.093
290.067
290.037
290.01
290.098
290.086
290.058
290.026
289.995
290.091
290.078
290.048
290.013
289.98
290.083
290.069
290.037
290
289.963
290.075
290.059
290.025
289.985
289.945
290.065
290.048
290.011
289.968
289.926
290.056
290.037
289.996
289.951
289.907
290.045
290.024
289.981
289.933
289.887
290.034
290.012
289.965
289.914
289.868
290.023
289.998
289.949
289.896
289.849
290.011
289.985
289.933
289.879
289.83
290
289.972
289.918
289.862
289.813
289.989
289.96
289.904
289.848
289.798
289.978
289.95
289.893
289.835
289.784
289.969
289.94
289.883
289.825
289.771
289.96
289.933
289.876
289.817
289.761
289.953
289.927
289.87
289.811
289.754
289.946
289.923
289.867
289.807
289.752
289.939
289.919
289.865
289.807
289.756
289.929
289.913
289.865
289.811
289.764
289.911
289.905
289.863
289.816
289.776
289.892
289.888
289.859
289.822
289.791
289.883
289.873
289.852
289.824
289.802
290.192
290.193
290.195
290.199
290.191
290.192
290.194
290.197
290.187
290.188
290.189
290.192
290.183
290.182
290.182
290.185
290.178
290.175
290.174
290.176
290.183
290.172
290.168
290.165
290.167
290.175
290.167
290.16
290.155
290.157
290.166
290.161
290.152
290.145
290.145
290.156
290.156
290.143
290.134
290.133
290.144
290.15
290.135
290.122
290.119
290.129
290.144
290.127
290.11
290.104
290.112
290.139
290.119
290.098
290.087
290.092
290.134
290.112
290.087
290.071
290.07
290.129
290.106
290.077
290.055
290.047
290.124
290.101
290.067
290.039
290.024
290.119
290.096
290.058
290.025
290.003
290.114
290.09
290.05
290.011
289.983
290.109
290.085
290.042
289.998
289.964
290.104
290.079
290.035
289.986
289.946
290.098
290.073
290.027
289.973
289.927
290.091
290.066
290.018
289.96
289.909
290.084
290.058
290.008
289.945
289.891
290.077
290.05
289.996
289.93
289.873
290.068
290.04
289.982
289.913
289.855
290.059
290.028
289.968
289.896
289.836
290.05
290.016
289.953
289.878
289.818
290.039
290.004
289.937
289.861
289.799
290.029
289.991
289.921
289.844
289.782
290.018
289.978
289.906
289.828
289.766
290.007
289.966
289.892
289.813
289.751
289.996
289.954
289.88
289.801
289.737
289.986
289.944
289.869
289.79
289.725
289.977
289.935
289.861
289.78
289.715
289.969
289.929
289.855
289.772
289.709
289.961
289.923
289.851
289.767
289.706
289.954
289.92
289.847
289.767
289.708
289.947
289.916
289.847
289.774
289.717
289.938
289.912
289.85
289.784
289.732
289.923
289.907
289.853
289.796
289.75
289.901
289.897
289.853
289.808
289.77
289.887
289.884
289.852
289.816
289.788
290.193
290.195
290.198
290.204
290.192
290.193
290.196
290.2
290.188
290.188
290.189
290.193
290.183
290.181
290.181
290.184
290.178
290.173
290.17
290.174
290.171
290.163
290.159
290.162
290.173
290.164
290.153
290.146
290.149
290.162
290.157
290.142
290.132
290.134
290.148
290.15
290.13
290.118
290.118
290.132
290.143
290.119
290.102
290.099
290.111
290.136
290.108
290.086
290.078
290.087
290.13
290.098
290.07
290.056
290.059
290.124
290.09
290.055
290.033
290.029
290.119
290.082
290.042
290.012
289.998
290.114
290.076
290.029
289.991
289.969
290.11
290.071
290.018
289.973
289.942
290.105
290.067
290.008
289.956
289.917
290.101
290.062
289.998
289.939
289.895
290.096
290.057
289.988
289.923
289.874
290.091
290.051
289.978
289.907
289.854
290.085
290.044
289.968
289.891
289.834
290.079
290.036
289.956
289.875
289.814
290.071
290.027
289.944
289.858
289.795
290.063
290.017
289.93
289.842
289.776
290.054
290.005
289.916
289.825
289.759
290.045
289.993
289.901
289.809
289.742
290.035
289.981
289.887
289.794
289.727
290.024
289.968
289.873
289.78
289.712
290.014
289.956
289.86
289.767
289.699
290.004
289.945
289.849
289.756
289.687
289.994
289.935
289.838
289.745
289.678
289.985
289.927
289.829
289.735
289.67
289.976
289.919
289.819
289.727
289.663
289.969
289.913
289.809
289.72
289.658
289.961
289.907
289.803
289.716
289.655
289.954
289.903
289.802
289.717
289.658
289.947
289.9
289.81
289.729
289.671
289.939
289.899
289.821
289.75
289.695
289.927
289.897
289.832
289.772
289.724
289.907
289.892
289.841
289.792
289.752
289.89
289.885
289.844
289.808
289.779
290.194
290.196
290.203
290.209
290.193
290.194
290.198
290.202
290.189
290.189
290.189
290.194
290.184
290.18
290.179
290.183
290.177
290.169
290.166
290.171
290.169
290.157
290.151
290.157
290.16
290.144
290.135
290.14
290.158
290.151
290.129
290.118
290.122
290.141
290.142
290.115
290.099
290.1
290.119
290.133
290.1
290.079
290.076
290.092
290.125
290.086
290.058
290.048
290.059
290.117
290.074
290.038
290.02
290.023
290.111
290.063
290.019
289.991
289.984
290.106
290.054
290.001
289.964
289.945
290.101
290.046
289.986
289.939
289.909
290.097
290.04
289.972
289.917
289.877
290.093
290.036
289.959
289.896
289.849
290.089
290.032
289.947
289.877
289.824
290.085
290.027
289.935
289.858
289.8
290.08
290.022
289.922
289.839
289.778
290.074
290.016
289.908
289.82
289.757
290.067
290.008
289.894
289.801
289.737
290.06
289.998
289.88
289.782
289.719
290.052
289.987
289.867
289.766
289.701
290.042
289.975
289.853
289.751
289.685
290.033
289.962
289.84
289.737
289.67
290.023
289.95
289.828
289.725
289.658
290.013
289.939
289.817
289.714
289.647
290.003
289.928
289.806
289.705
289.639
289.993
289.918
289.795
289.696
289.631
289.984
289.91
289.784
289.688
289.624
289.975
289.901
289.772
289.68
289.617
289.966
289.891
289.76
289.669
289.609
289.957
289.88
289.747
289.658
289.6
289.948
289.869
289.735
289.648
289.592
289.94
289.861
289.73
289.646
289.593
289.933
289.86
289.742
289.661
289.608
289.928
289.865
289.77
289.697
289.645
289.921
289.873
289.799
289.737
289.69
289.907
289.877
289.821
289.773
289.733
289.889
289.879
289.835
289.8
289.771
290.196
290.199
290.206
290.214
290.195
290.196
290.199
290.205
290.19
290.188
290.189
290.194
290.184
290.178
290.176
290.183
290.176
290.164
290.16
290.168
290.166
290.149
290.142
290.151
290.155
290.132
290.123
290.132
290.143
290.115
290.102
290.109
290.134
290.131
290.096
290.078
290.083
290.107
290.12
290.078
290.053
290.052
290.073
290.11
290.061
290.027
290.018
290.031
290.102
290.046
290.002
289.983
289.986
290.095
290.032
289.979
289.948
289.938
290.089
290.021
289.958
289.915
289.892
290.084
290.011
289.938
289.885
289.85
290.079
290.003
289.92
289.857
289.813
290.074
289.995
289.903
289.831
289.78
290.069
289.988
289.887
289.807
289.752
290.064
289.983
289.87
289.785
289.726
290.059
289.976
289.853
289.763
289.703
290.054
289.968
289.836
289.741
289.681
290.047
289.96
289.819
289.722
289.662
290.039
289.95
289.803
289.704
289.644
290.031
289.94
289.789
289.689
289.629
290.021
289.929
289.776
289.676
289.616
290.012
289.918
289.766
289.666
289.605
290.002
289.908
289.756
289.657
289.596
289.992
289.898
289.747
289.65
289.589
289.982
289.888
289.739
289.643
289.583
289.972
289.877
289.73
289.636
289.577
289.962
289.865
289.718
289.627
289.569
289.95
289.85
289.702
289.614
289.56
289.938
289.826
289.682
289.598
289.547
289.924
289.796
289.658
289.579
289.534
289.911
289.764
289.635
289.564
289.523
289.9
289.746
289.625
289.558
289.521
289.894
289.755
289.638
289.574
289.538
289.895
289.788
289.687
289.623
289.584
289.9
289.824
289.747
289.69
289.65
289.898
289.851
289.795
289.749
289.713
289.886
289.867
289.825
289.791
289.763
290.199
290.203
290.21
290.218
290.197
290.197
290.2
290.208
290.192
290.188
290.188
290.195
290.184
290.174
290.172
290.182
290.174
290.158
290.154
290.166
290.161
290.14
290.133
290.147
290.147
290.12
290.11
290.124
290.132
290.098
290.085
290.098
290.118
290.076
290.057
290.067
290.097
290.104
290.054
290.027
290.03
290.055
290.092
290.033
289.996
289.989
290.006
290.083
290.014
289.966
289.947
289.952
290.074
289.997
289.938
289.905
289.896
290.066
289.982
289.912
289.866
289.843
290.059
289.969
289.887
289.829
289.795
290.052
289.955
289.863
289.796
289.753
290.045
289.942
289.839
289.765
289.718
290.038
289.929
289.816
289.737
289.687
290.032
289.916
289.793
289.71
289.659
290.025
289.904
289.772
289.686
289.635
290.018
289.893
289.752
289.664
289.614
290.011
289.883
289.734
289.645
289.596
290.002
289.873
289.719
289.629
289.58
289.993
289.864
289.706
289.617
289.567
289.984
289.855
289.697
289.607
289.557
289.975
289.847
289.689
289.599
289.548
289.965
289.838
289.682
289.593
289.542
289.955
289.829
289.675
289.587
289.537
289.944
289.817
289.666
289.581
289.531
289.932
289.802
289.654
289.571
289.524
289.918
289.778
289.636
289.558
289.514
289.902
289.744
289.612
289.541
289.502
289.884
289.705
289.584
289.521
289.488
289.866
289.665
289.556
289.501
289.475
289.847
289.632
289.533
289.487
289.465
289.832
289.615
289.523
289.482
289.465
289.825
289.623
289.536
289.499
289.483
289.834
289.68
289.592
289.552
289.533
289.857
289.76
289.69
289.646
289.617
289.877
289.819
289.767
289.728
289.698
289.878
289.853
289.815
289.785
289.759
290.202
290.206
290.212
290.223
290.199
290.198
290.201
290.211
290.193
290.186
290.186
290.197
290.183
290.17
290.169
290.182
290.17
290.151
290.148
290.164
290.155
290.129
290.124
290.144
290.138
290.105
290.098
290.119
290.12
290.08
290.069
290.089
290.102
290.055
290.037
290.052
290.086
290.029
290.002
290.01
290.042
290.071
290.004
289.966
289.963
289.985
290.058
289.981
289.931
289.914
289.923
290.047
289.959
289.897
289.866
289.86
290.036
289.938
289.864
289.82
289.8
290.025
289.918
289.832
289.778
289.748
290.015
289.897
289.801
289.739
289.704
290.005
289.876
289.77
289.704
289.667
289.994
289.854
289.741
289.672
289.635
289.984
289.833
289.714
289.644
289.607
289.973
289.813
289.689
289.619
289.583
289.963
289.794
289.667
289.597
289.563
289.953
289.779
289.65
289.58
289.545
289.944
289.768
289.636
289.566
289.531
289.935
289.759
289.625
289.554
289.519
289.927
289.753
289.617
289.546
289.51
289.918
289.747
289.611
289.54
289.503
289.908
289.739
289.604
289.534
289.497
289.898
289.727
289.596
289.527
289.491
289.886
289.71
289.584
289.519
289.485
289.872
289.684
289.568
289.507
289.476
289.856
289.655
289.547
289.493
289.467
289.836
289.622
289.523
289.477
289.456
289.814
289.588
289.499
289.461
289.445
289.788
289.555
289.477
289.447
289.436
289.758
289.528
289.46
289.437
289.431
289.725
289.51
289.453
289.436
289.434
289.706
289.513
289.463
289.451
289.452
289.725
289.561
289.512
289.5
289.5
289.778
289.684
289.635
289.611
289.596
289.838
289.782
289.741
289.712
289.69
289.86
289.838
289.806
289.78
289.757
290.206
290.209
290.215
290.229
290.202
290.199
290.202
290.214
290.193
290.184
290.185
290.199
290.18
290.165
290.165
290.183
290.165
290.142
290.142
290.164
290.147
290.117
290.115
290.141
290.127
290.09
290.086
290.114
290.106
290.062
290.054
290.082
290.085
290.032
290.018
290.041
290.066
290.002
289.979
289.994
290.048
289.973
289.938
289.942
289.971
290.03
289.945
289.897
289.887
289.901
290.012
289.917
289.857
289.832
289.832
289.996
289.889
289.818
289.781
289.768
289.981
289.86
289.779
289.734
289.716
289.965
289.83
289.741
289.692
289.672
289.949
289.8
289.705
289.655
289.634
289.934
289.771
289.672
289.622
289.601
289.919
289.744
289.642
289.593
289.573
289.905
289.72
289.617
289.569
289.549
289.892
289.699
289.596
289.548
289.529
289.88
289.683
289.579
289.531
289.511
289.87
289.669
289.565
289.517
289.497
289.862
289.659
289.555
289.506
289.485
289.853
289.651
289.547
289.497
289.476
289.845
289.643
289.54
289.49
289.468
289.837
289.633
289.532
289.483
289.461
289.827
289.621
289.523
289.476
289.455
289.815
289.605
289.511
289.468
289.449
289.8
289.584
289.496
289.458
289.442
289.782
289.559
289.479
289.447
289.434
289.757
289.531
289.461
289.436
289.427
289.724
289.503
289.443
289.426
289.421
289.671
289.474
289.428
289.418
289.418
289.593
289.447
289.417
289.414
289.417
289.521
289.429
289.413
289.415
289.423
289.484
289.427
289.421
289.429
289.441
289.517
289.461
289.456
289.467
289.482
289.646
289.572
289.553
289.558
289.569
289.775
289.736
289.714
289.7
289.687
289.83
289.819
289.797
289.777
289.758
290.208
290.211
290.217
290.235
290.203
290.199
290.203
290.219
290.192
290.181
290.184
290.203
290.177
290.159
290.161
290.186
290.159
290.133
290.136
290.165
290.137
290.105
290.107
290.141
290.115
290.075
290.076
290.112
290.091
290.043
290.041
290.077
290.067
290.01
290.001
290.035
290.044
289.976
289.959
289.984
290.022
289.942
289.914
289.927
289.999
289.909
289.868
289.866
289.888
289.975
289.874
289.822
289.807
289.816
289.95
289.839
289.777
289.754
289.755
289.924
289.801
289.733
289.706
289.703
289.901
289.762
289.69
289.663
289.658
289.879
289.725
289.651
289.625
289.62
289.858
289.691
289.617
289.591
289.587
289.839
289.661
289.587
289.562
289.558
289.823
289.637
289.563
289.537
289.533
289.809
289.616
289.542
289.516
289.512
289.797
289.601
289.525
289.498
289.493
289.787
289.588
289.512
289.484
289.478
289.779
289.578
289.501
289.472
289.465
289.772
289.57
289.493
289.463
289.454
289.765
289.562
289.485
289.455
289.445
289.757
289.552
289.477
289.448
289.438
289.748
289.54
289.468
289.441
289.432
289.735
289.525
289.458
289.434
289.427
289.716
289.507
289.446
289.427
289.422
289.689
289.485
289.434
289.42
289.417
289.645
289.461
289.422
289.413
289.414
289.569
289.436
289.411
289.409
289.412
289.488
289.413
289.403
289.406
289.412
289.435
289.399
289.398
289.406
289.415
289.408
289.392
289.398
289.409
289.423
289.4
289.396
289.405
289.421
289.44
289.421
289.418
289.43
289.452
289.477
289.526
289.487
289.496
289.522
289.55
289.717
289.688
289.675
289.673
289.674
289.792
289.791
289.78
289.769
289.755
290.21
290.213
290.22
290.242
290.203
290.199
290.204
290.225
290.19
290.178
290.183
290.208
290.173
290.153
290.158
290.19
290.152
290.124
290.131
290.169
290.128
290.092
290.101
290.144
290.102
290.059
290.067
290.114
290.075
290.024
290.03
290.077
290.048
289.987
289.989
290.032
290.021
289.95
289.943
289.979
289.993
289.912
289.894
289.92
289.964
289.874
289.844
289.856
289.932
289.833
289.794
289.797
289.819
289.899
289.791
289.746
289.743
289.759
289.864
289.746
289.7
289.695
289.708
289.828
289.702
289.657
289.652
289.664
289.795
289.661
289.617
289.614
289.625
289.768
289.624
289.583
289.58
289.591
289.746
289.593
289.553
289.55
289.561
289.728
289.568
289.527
289.524
289.534
289.713
289.549
289.506
289.501
289.51
289.702
289.533
289.489
289.482
289.489
289.693
289.521
289.475
289.466
289.472
289.686
289.511
289.463
289.453
289.457
289.68
289.503
289.454
289.442
289.445
289.673
289.495
289.446
289.433
289.435
289.664
289.485
289.438
289.426
289.427
289.651
289.474
289.43
289.42
289.421
289.631
289.461
289.422
289.415
289.416
289.596
289.444
289.415
289.41
289.413
289.534
289.426
289.407
289.407
289.411
289.464
289.408
289.401
289.405
289.411
289.421
289.396
289.397
289.404
289.412
289.398
289.388
289.395
289.405
289.414
289.385
289.384
289.394
289.406
289.419
289.38
289.383
289.394
289.41
289.426
289.381
289.385
289.398
289.417
289.439
289.395
289.396
289.411
289.437
289.468
289.446
289.434
289.45
289.486
289.527
289.645
289.546
289.553
289.599
289.635
289.734
289.742
289.744
289.745
289.742
290.211
290.215
290.223
290.25
290.203
290.199
290.205
290.232
290.188
290.175
290.182
290.215
290.168
290.146
290.156
290.197
290.144
290.114
290.127
290.176
290.118
290.079
290.096
290.15
290.089
290.043
290.061
290.119
290.058
290.005
290.023
290.082
290.027
289.966
289.98
290.036
289.995
289.927
289.933
289.982
289.961
289.885
289.882
289.923
289.925
289.842
289.83
289.859
289.887
289.797
289.779
289.801
289.845
289.751
289.731
289.749
289.779
289.801
289.702
289.685
289.702
289.73
289.755
289.657
289.642
289.66
289.686
289.71
289.614
289.603
289.621
289.647
289.667
289.577
289.568
289.586
289.612
289.631
289.545
289.537
289.555
289.579
289.605
289.519
289.511
289.527
289.55
289.589
289.498
289.488
289.502
289.523
289.578
289.481
289.469
289.48
289.499
289.57
289.468
289.453
289.462
289.478
289.564
289.458
289.44
289.446
289.46
289.557
289.449
289.43
289.434
289.446
289.547
289.44
289.421
289.424
289.434
289.53
289.431
289.414
289.417
289.425
289.502
289.421
289.408
289.411
289.419
289.465
289.41
289.403
289.407
289.415
289.428
289.4
289.399
289.405
289.412
289.407
289.393
289.396
289.404
289.412
289.392
289.388
289.395
289.405
289.413
289.384
289.385
289.395
289.406
289.416
289.379
289.383
289.395
289.408
289.42
289.376
289.381
289.395
289.411
289.424
289.374
289.38
289.395
289.413
289.431
289.374
289.379
289.395
289.417
289.44
289.379
289.382
289.399
289.426
289.459
289.4
289.397
289.415
289.451
289.499
289.482
289.449
289.47
289.517
289.582
289.638
289.659
289.674
289.692
289.709
290.213
290.217
290.226
290.258
290.203
290.198
290.207
290.24
290.185
290.171
290.183
290.223
290.163
290.139
290.155
290.206
290.137
290.103
290.125
290.185
290.107
290.067
290.094
290.16
290.075
290.028
290.058
290.13
290.04
289.989
290.02
290.092
290.004
289.948
289.976
290.047
289.966
289.906
289.929
289.994
289.926
289.862
289.879
289.936
289.884
289.816
289.827
289.875
289.839
289.769
289.777
289.82
289.792
289.721
289.73
289.77
289.741
289.675
289.686
289.725
289.768
289.689
289.631
289.644
289.683
289.725
289.638
289.59
289.606
289.645
289.685
289.589
289.553
289.572
289.609
289.648
289.547
289.521
289.54
289.576
289.613
289.513
289.494
289.512
289.545
289.58
289.487
289.471
289.487
289.517
289.549
289.467
289.452
289.466
289.492
289.521
289.451
289.437
289.447
289.47
289.496
289.439
289.425
289.433
289.451
289.474
289.429
289.415
289.421
289.436
289.456
289.421
289.407
289.412
289.425
289.442
289.412
289.401
289.405
289.416
289.431
289.403
289.395
289.4
289.411
289.423
289.395
289.391
289.397
289.407
289.418
289.388
289.388
289.396
289.406
289.416
289.384
289.386
289.395
289.406
289.416
289.38
289.385
289.395
289.408
289.418
289.378
289.384
289.396
289.41
289.421
289.376
289.382
289.397
289.414
289.426
289.374
289.381
289.398
289.417
289.432
289.372
289.379
289.397
289.419
289.439
289.37
289.377
289.396
289.421
289.445
289.37
289.376
289.395
289.423
289.455
289.375
289.378
289.397
289.43
289.477
289.403
289.396
289.415
289.459
289.528
289.509
289.488
289.501
289.568
289.629
290.214
290.219
290.229
290.267
290.202
290.197
290.21
290.249
290.183
290.166
290.184
290.233
290.158
290.131
290.156
290.217
290.129
290.093
290.126
290.198
290.096
290.054
290.094
290.175
290.059
290.014
290.059
290.145
290.019
289.974
290.021
290.109
289.977
289.932
289.979
290.066
289.934
289.889
289.933
290.016
289.89
289.844
289.884
289.961
289.844
289.798
289.834
289.904
289.795
289.752
289.787
289.852
289.744
289.707
289.742
289.805
289.691
289.663
289.701
289.762
289.639
289.621
289.661
289.722
289.78
289.591
289.583
289.624
289.683
289.739
289.548
289.548
289.589
289.646
289.7
289.512
289.518
289.556
289.61
289.661
289.484
289.491
289.526
289.575
289.624
289.461
289.468
289.499
289.543
289.588
289.442
289.448
289.475
289.513
289.554
289.427
289.432
289.454
289.487
289.523
289.415
289.419
289.437
289.465
289.496
289.405
289.409
289.423
289.447
289.474
289.398
289.401
289.413
289.432
289.455
289.392
289.395
289.406
289.422
289.441
289.388
289.391
289.401
289.415
289.431
289.384
289.388
289.398
289.411
289.425
289.382
289.386
289.396
289.409
289.421
289.379
289.385
289.396
289.409
289.421
289.378
289.384
289.397
289.411
289.423
289.376
289.383
289.398
289.415
289.427
289.374
289.382
289.4
289.419
289.434
289.372
289.381
289.401
289.424
289.441
289.37
289.379
289.401
289.427
289.449
289.368
289.377
289.399
289.429
289.456
289.366
289.374
289.396
289.428
289.46
289.365
289.371
289.392
289.425
289.465
289.372
289.372
289.389
289.423
289.477
289.404
289.387
289.396
289.429
289.518
290.214
290.22
290.233
290.277
290.201
290.195
290.213
290.26
290.18
290.16
290.187
290.245
290.153
290.123
290.158
290.231
290.121
290.083
290.129
290.214
290.083
290.043
290.098
290.193
290.04
290.002
290.064
290.166
289.994
289.961
290.028
290.133
289.947
289.92
289.988
290.093
289.901
289.877
289.944
290.047
289.854
289.833
289.898
289.996
289.807
289.789
289.852
289.944
289.758
289.745
289.808