/*--------------------------------*- C++ -*----------------------------------*\
| =========                 |                                                 |
| \\      /  F ield         | OpenFOAM: The Open Source CFD Toolbox           |
|  \\    /   O peration     | Version:  2.3.1                                 |
|   \\  /    A nd           | Web:      www.OpenFOAM.org                      |
|    \\/     M anipulation  |                                                 |
\*---------------------------------------------------------------------------*/
FoamFile
{
    version     2.0;
    format      ascii;
    class       volVectorField;
    location    "600";
    object      U;
}
// * * * * * * * * * * * * * * * * * * * * * * * * * * * * * * * * * * * * * //

dimensions      [0 1 -1 0 0 0 0];

internalField   nonuniform List<vector> 
6852
(
(0.00316295 -0.0108133 0.00419953)
(-0.00321843 -0.0118187 0.0083378)
(-0.0278256 -0.00672523 0.0100598)
(-0.0624745 -0.00483466 0.0158824)
(-0.103694 -0.00684945 0.0241844)
(-0.0115003 -0.0139761 0.00769155)
(-0.0698408 -0.00430675 0.0217646)
(-0.139049 2.92592e-05 0.0294053)
(-0.203799 -0.0104674 0.0366067)
(-0.262012 -0.0333291 0.0427985)
(-0.0248545 0.0100641 0.0147587)
(-0.105139 0.0150615 0.0285349)
(-0.186572 0.00251381 0.0347119)
(-0.258152 -0.024467 0.0379848)
(-0.319875 -0.0632486 0.0364245)
(-0.0305097 0.0377437 0.0207614)
(-0.125497 0.0438469 0.0323513)
(-0.221281 0.0227452 0.0332697)
(-0.304129 -0.00936296 0.0292862)
(-0.37222 -0.0472596 0.017378)
(-0.0352453 0.0683764 0.0260118)
(-0.142332 0.0861548 0.0332098)
(-0.247687 0.069639 0.027011)
(-0.336233 0.0473457 0.0142521)
(-0.403996 0.0231674 -0.00758979)
(-0.0389917 0.0998971 0.0297598)
(-0.155199 0.134533 0.0351065)
(-0.266516 0.125917 0.0266527)
(-0.357295 0.114348 0.0122506)
(-0.424187 0.104074 -0.0112387)
(-0.0395312 0.130699 0.0316208)
(-0.159318 0.184678 0.0374981)
(-0.272753 0.18427 0.0296383)
(-0.36386 0.18191 0.0167012)
(-0.430022 0.18136 -0.00433068)
(-0.0374309 0.15775 0.03165)
(-0.15629 0.231648 0.0391986)
(-0.269324 0.238334 0.0328572)
(-0.359792 0.243231 0.0216461)
(-0.425837 0.250388 0.00274439)
(-0.0334832 0.179588 0.030186)
(-0.14772 0.273503 0.0398721)
(-0.258375 0.286579 0.03562)
(-0.347448 0.297641 0.0263871)
(-0.413525 0.311761 0.00969687)
(-0.0284492 0.19525 0.0275731)
(-0.134874 0.308621 0.0394208)
(-0.241124 0.327412 0.0376308)
(-0.327573 0.343682 0.0306235)
(-0.393051 0.364293 0.0164793)
(-0.0230328 0.20445 0.0241164)
(-0.119111 0.336046 0.0378341)
(-0.219094 0.360033 0.0387045)
(-0.301542 0.38086 0.034139)
(-0.365452 0.408101 0.0229774)
(-0.0176984 0.207383 0.0200808)
(-0.101427 0.355108 0.0351609)
(-0.193154 0.383412 0.0387173)
(-0.269596 0.40725 0.0368613)
(-0.329626 0.439286 0.0295146)
(-0.0128797 0.204777 0.0157318)
(-0.0832578 0.365722 0.0314807)
(-0.165456 0.397183 0.0374246)
(-0.234735 0.421796 0.0380593)
(-0.289755 0.455443 0.0342626)
(-0.00878738 0.197878 0.0113549)
(-0.0657628 0.368714 0.0270126)
(-0.137848 0.402401 0.0348337)
(-0.199469 0.425986 0.0374494)
(-0.249013 0.458761 0.0364638)
(-0.0054576 0.188069 0.00721554)
(-0.0497453 0.365378 0.0220846)
(-0.111728 0.400658 0.031205)
(-0.165724 0.42198 0.035223)
(-0.209846 0.452073 0.0362268)
(-0.00281495 0.176608 0.00351393)
(-0.0356315 0.357178 0.0170484)
(-0.0879563 0.393707 0.0269161)
(-0.134696 0.412146 0.0317993)
(-0.17375 0.438535 0.0340388)
(-0.000744622 0.164487 0.000364348)
(-0.023542 0.345513 0.0122134)
(-0.0669123 0.383167 0.0223561)
(-0.106948 0.398625 0.0276774)
(-0.141396 0.420958 0.0305637)
(0.000853094 0.152424 -0.00220357)
(-0.0133913 0.331525 0.00781413)
(-0.0486119 0.370363 0.0178558)
(-0.082566 0.383125 0.0233207)
(-0.112871 0.401548 0.0264556)
(0.00198562 0.140816 -0.0042367)
(-0.00502077 0.316115 0.00402819)
(-0.0327859 0.356275 0.013659)
(-0.0613015 0.366862 0.0190842)
(-0.0878763 0.381845 0.0222348)
(0.00280193 0.130327 -0.00575778)
(0.00187197 0.29935 0.000879587)
(-0.0190887 0.341496 0.00990899)
(-0.0427214 0.350602 0.0151934)
(-0.0658946 0.362774 0.0182472)
(0.0036372 0.120664 -0.00683704)
(0.00756929 0.281719 -0.00172059)
(-0.00725892 0.326368 0.00666586)
(-0.0262887 0.334712 0.0117604)
(-0.0463155 0.344767 0.0146835)
(0.00448045 0.111401 -0.00762109)
(0.0121754 0.264092 -0.00378217)
(0.00314173 0.310499 0.00381985)
(-0.0114995 0.319251 0.00880635)
(-0.0284938 0.327874 0.0116176)
(0.0051433 0.10274 -0.00795881)
(0.0161725 0.246298 -0.00540407)
(0.0123291 0.294015 0.00142105)
(0.00221864 0.303948 0.00622672)
(-0.0118169 0.311919 0.00904229)
(0.00558728 0.0938321 -0.00785503)
(0.0198517 0.228193 -0.00664073)
(0.0207883 0.276724 -0.000523063)
(0.0150973 0.288422 0.00400136)
(0.00444448 0.296398 0.00683447)
(0.0058874 0.0843493 -0.00762511)
(0.0233556 0.209488 -0.00749823)
(0.0288912 0.258377 -0.00207256)
(0.0275414 0.272176 0.00214237)
(0.0205128 0.280921 0.00493893)
(0.0061849 0.0740554 -0.00746312)
(0.0267983 0.189754 -0.00796584)
(0.036875 0.238671 -0.00332352)
(0.0399073 0.254702 0.00061795)
(0.0367928 0.264674 0.00334415)
(0.00657431 0.0627638 -0.00740731)
(0.0302764 0.168597 -0.00819386)
(0.0449086 0.217251 -0.00426696)
(0.0524315 0.235503 -0.000584547)
(0.0534919 0.246972 0.00203699)
(0.00720204 0.0502463 -0.00752124)
(0.0338962 0.145569 -0.00860305)
(0.0530194 0.193677 -0.00498498)
(0.0652139 0.214032 -0.00142256)
(0.0707058 0.227098 0.00111474)
(0.00814109 0.0362905 -0.00784804)
(0.0376957 0.121498 -0.00935419)
(0.0612321 0.167661 -0.00571594)
(0.0782374 0.18975 -0.00202004)
(0.0883687 0.204323 0.000601876)
(0.00934813 0.0207824 -0.00837792)
(0.0417816 0.0963784 -0.0103723)
(0.069643 0.139319 -0.0066525)
(0.0913518 0.162409 -0.00258547)
(0.106229 0.178075 0.000338689)
(0.0108329 0.00354411 -0.00943002)
(0.0463736 0.0701107 -0.0118875)
(0.0782047 0.108807 -0.00847327)
(0.104031 0.132047 -0.00359496)
(0.123602 0.148097 2.13334e-05)
(0.0119375 -0.0150506 -0.0114609)
(0.0506414 0.0428171 -0.0142966)
(0.086161 0.079181 -0.0114905)
(0.115602 0.0999332 -0.00566177)
(0.139548 0.114818 -0.000860781)
(0.0118588 -0.0307267 -0.0135501)
(0.0532317 0.0164321 -0.0169557)
(0.0930062 0.0514989 -0.0150605)
(0.1256 0.0671977 -0.00963115)
(0.152702 0.0792771 -0.00338398)
(0.0103366 -0.0438631 -0.0130726)
(0.0510756 -0.0121577 -0.017842)
(0.0953233 0.024694 -0.017695)
(0.131259 0.0395908 -0.0141465)
(0.161017 0.0449025 -0.00801252)
(0.00687503 -0.0520651 -0.00992806)
(0.0428721 -0.0357005 -0.0160032)
(0.0888252 -0.00166061 -0.018203)
(0.128676 0.0146558 -0.0167895)
(0.161761 0.0155646 -0.0128854)
(0.00303115 -0.0578425 -0.00551841)
(0.0311603 -0.057451 -0.012687)
(0.0748801 -0.0263043 -0.0168776)
(0.115089 -0.010389 -0.0172908)
(0.151018 -0.00978304 -0.0161836)
(0.00066134 -0.0617549 -0.00139447)
(0.0176744 -0.0748049 -0.00935243)
(0.0555794 -0.046242 -0.0148835)
(0.0929998 -0.0301565 -0.0171813)
(0.129592 -0.0297047 -0.0181154)
(-0.000582885 -0.062717 0.00109716)
(0.00345017 -0.0835902 -0.00696778)
(0.0307751 -0.0605028 -0.0132439)
(0.0635461 -0.0451389 -0.0183053)
(0.0992921 -0.0450059 -0.02152)
(-0.00248821 -0.0577837 0.00147653)
(-0.0112139 -0.0788525 -0.00658876)
(0.00162468 -0.064559 -0.0146566)
(0.0291746 -0.0515941 -0.0230525)
(0.0648423 -0.0515942 -0.0295863)
(-0.00598231 -0.0431368 -0.000736588)
(-0.0251159 -0.0594529 -0.00940383)
(-0.0276077 -0.0560656 -0.0186055)
(-0.00837099 -0.0480267 -0.0305105)
(0.0290705 -0.047733 -0.0415362)
(-0.00863205 -0.0145811 -0.0046429)
(-0.0306035 -0.0211688 -0.0133253)
(-0.0409224 -0.0218836 -0.0226236)
(-0.03271 -0.0211884 -0.033914)
(-0.00419021 -0.0207404 -0.0452866)
(0.00350586 -0.0196253 0.0254864)
(-0.00589099 -0.0125314 0.0441602)
(-0.054437 0.0014525 0.0568246)
(-0.109051 0.00578867 0.0754272)
(-0.166444 0.0053412 0.0961491)
(-0.0432609 -0.0153126 0.0526492)
(-0.123639 0.0137622 0.0805231)
(-0.198092 0.0233032 0.0935061)
(-0.264995 0.0165333 0.105945)
(-0.321351 -0.00214928 0.114717)
(-0.0590662 0.0349833 0.0663748)
(-0.149275 0.0478348 0.0886454)
(-0.231876 0.0425305 0.0945117)
(-0.300763 0.0214765 0.0931893)
(-0.355858 -0.0133037 0.0811768)
(-0.0567302 0.0801329 0.078752)
(-0.154313 0.0923445 0.0903146)
(-0.245374 0.082672 0.0771171)
(-0.319844 0.0613382 0.0482054)
(-0.375604 0.030827 0.00238936)
(-0.0559934 0.122947 0.0918204)
(-0.16077 0.140944 0.0918756)
(-0.258355 0.132495 0.0621913)
(-0.335145 0.115876 0.0156118)
(-0.386325 0.0945657 -0.0443108)
(-0.0586248 0.164366 0.103392)
(-0.172568 0.1925 0.0962815)
(-0.27724 0.187655 0.0583706)
(-0.356729 0.176053 0.0062965)
(-0.406021 0.161124 -0.0547958)
(-0.0608143 0.206441 0.111514)
(-0.18173 0.247309 0.101885)
(-0.290586 0.248216 0.0616208)
(-0.370586 0.24325 0.00965771)
(-0.418111 0.235071 -0.0488286)
(-0.0611249 0.247219 0.115865)
(-0.18599 0.301819 0.107236)
(-0.296614 0.308301 0.067872)
(-0.376294 0.308938 0.0176305)
(-0.423095 0.305565 -0.0389249)
(-0.0590658 0.284835 0.116711)
(-0.18472 0.353955 0.11148)
(-0.295036 0.365779 0.0750248)
(-0.373759 0.371748 0.0273601)
(-0.420283 0.373475 -0.0276794)
(-0.0548086 0.317412 0.114495)
(-0.178263 0.401623 0.114163)
(-0.286339 0.418264 0.0820404)
(-0.363223 0.429111 0.0378422)
(-0.409208 0.436106 -0.0151784)
(-0.0489097 0.343607 0.10966)
(-0.167607 0.443333 0.115002)
(-0.271787 0.464238 0.0882631)
(-0.345931 0.479653 0.04856)
(-0.390978 0.492399 -0.00111143)
(-0.041939 0.362607 0.102584)
(-0.153694 0.477938 0.11381)
(-0.252297 0.502192 0.0930841)
(-0.322345 0.521102 0.0592847)
(-0.364714 0.538649 0.0156923)
(-0.034606 0.374301 0.0936853)
(-0.13801 0.504948 0.110488)
(-0.23013 0.531464 0.0957428)
(-0.295771 0.552251 0.0682173)
(-0.335254 0.572667 0.031561)
(-0.027454 0.379341 0.0834969)
(-0.121771 0.524769 0.105204)
(-0.207074 0.552796 0.0959688)
(-0.268417 0.574318 0.0744306)
(-0.305535 0.596574 0.0445977)
(-0.0208239 0.378757 0.0726075)
(-0.105814 0.538224 0.0983349)
(-0.184313 0.567321 0.0938836)
(-0.241512 0.588778 0.0776694)
(-0.276781 0.612095 0.05391)
(-0.01489 0.373683 0.0615795)
(-0.0906478 0.546294 0.090367)
(-0.162563 0.576258 0.0898858)
(-0.215761 0.597108 0.0782201)
(-0.24956 0.620871 0.0596751)
(-0.00971358 0.365169 0.0508831)
(-0.0765277 0.549951 0.0817948)
(-0.142186 0.580765 0.0844812)
(-0.191521 0.600692 0.0765758)
(-0.223983 0.624459 0.0623656)
(-0.0052905 0.354087 0.0408614)
(-0.0635315 0.550054 0.0730574)
(-0.123287 0.581845 0.0781777)
(-0.168894 0.600713 0.0733043)
(-0.200005 0.624202 0.0626147)
(-0.00159199 0.341075 0.0316951)
(-0.051623 0.54729 0.0645381)
(-0.105797 0.580305 0.0714312)
(-0.147803 0.598104 0.0689669)
(-0.177487 0.62116 0.0611165)
(0.00147938 0.326558 0.0235268)
(-0.0406798 0.542153 0.0564796)
(-0.0895585 0.576741 0.0646057)
(-0.128066 0.593554 0.0640442)
(-0.156219 0.616111 0.05849)
(0.00405157 0.3107 0.0164847)
(-0.0305587 0.534966 0.0489316)
(-0.0743746 0.571557 0.0579826)
(-0.109431 0.587527 0.0589068)
(-0.135936 0.60958 0.0552367)
(0.00614721 0.293646 0.0105812)
(-0.0210971 0.525846 0.041873)
(-0.0599877 0.564953 0.0517102)
(-0.091613 0.580277 0.0538229)
(-0.116328 0.601858 0.0517358)
(0.00750346 0.274885 0.00571028)
(-0.0122565 0.514726 0.0353674)
(-0.0460822 0.556963 0.045844)
(-0.0742901 0.571882 0.0489492)
(-0.0970462 0.593038 0.0482643)
(0.0079375 0.25572 0.00188814)
(-0.00399897 0.50078 0.029385)
(-0.0323795 0.547448 0.0404437)
(-0.057126 0.562254 0.0443712)
(-0.0777122 0.583036 0.0449658)
(0.00788922 0.23657 -0.0010419)
(0.00377337 0.483388 0.0239206)
(-0.0187261 0.536142 0.0354784)
(-0.0397911 0.551177 0.0401612)
(-0.0579443 0.571604 0.0419069)
(0.00791285 0.216889 -0.00333231)
(0.0109974 0.462566 0.0190199)
(-0.00500082 0.522523 0.0308809)
(-0.0219861 0.538371 0.0363374)
(-0.0374002 0.558356 0.0391598)
(0.00819707 0.196289 -0.00518676)
(0.0176756 0.43859 0.0146707)
(0.00883123 0.505607 0.0265726)
(-0.00351967 0.52346 0.032892)
(-0.0158405 0.542922 0.0367523)
(0.00865094 0.174423 -0.00676513)
(0.0240538 0.411239 0.0106573)
(0.022578 0.485159 0.0225915)
(0.0156558 0.505883 0.0297325)
(0.00697939 0.524691 0.0346331)
(0.0092238 0.150947 -0.00815749)
(0.0302583 0.379747 0.00677998)
(0.0362787 0.460619 0.0187945)
(0.0353181 0.485224 0.0268115)
(0.0309403 0.503674 0.0327615)
(0.0100034 0.125312 -0.0094636)
(0.0363613 0.34374 0.00299886)
(0.0497992 0.431527 0.0150237)
(0.0551873 0.460869 0.0239673)
(0.0557845 0.479273 0.0310199)
(0.0110907 0.0970455 -0.0110721)
(0.0422742 0.303151 -0.000873968)
(0.0629183 0.397716 0.0108748)
(0.0748987 0.432437 0.0208557)
(0.0809346 0.45116 0.02912)
(0.0126226 0.0648483 -0.013772)
(0.0477558 0.257693 -0.00527026)
(0.0753368 0.357677 0.00585331)
(0.09396 0.399371 0.0169843)
(0.10566 0.419087 0.0266278)
(0.0152225 0.0295513 -0.0177495)
(0.0528227 0.20755 -0.010447)
(0.0862731 0.311192 -0.000144143)
(0.111468 0.361442 0.0116334)
(0.129035 0.382996 0.0227224)
(0.0162432 -0.0155399 -0.0231295)
(0.0557484 0.15464 -0.0164668)
(0.0939569 0.259157 -0.00719636)
(0.125711 0.316215 0.00440533)
(0.14965 0.342527 0.0165633)
(0.0124136 -0.0472322 -0.0233713)
(0.0548897 0.103011 -0.0216688)
(0.0967655 0.204184 -0.0147027)
(0.134255 0.264912 -0.00405991)
(0.16522 0.296279 0.00796479)
(0.00632662 -0.0711912 -0.0170408)
(0.0496141 0.0537066 -0.022819)
(0.0939639 0.149956 -0.0207467)
(0.135257 0.210281 -0.0130907)
(0.172261 0.243627 -0.00293649)
(0.00109194 -0.0857219 -0.0102777)
(0.038456 0.00710898 -0.0218714)
(0.0842636 0.0988692 -0.0248869)
(0.127127 0.157738 -0.0217243)
(0.167896 0.189197 -0.0154479)
(-0.00245877 -0.0909838 -0.0075176)
(0.0206454 -0.0300878 -0.0229692)
(0.0661336 0.0535142 -0.028044)
(0.108118 0.109271 -0.0297126)
(0.15077 0.138303 -0.028531)
(-0.00681077 -0.0834363 -0.00821208)
(-0.0027856 -0.048652 -0.0247378)
(0.0371778 0.0194158 -0.0320235)
(0.0768752 0.0683444 -0.039293)
(0.120039 0.0928245 -0.0440745)
(-0.0137154 -0.0620689 -0.0124348)
(-0.0295376 -0.0504436 -0.0274384)
(-0.0139844 -0.0120223 -0.0410914)
(0.030324 0.0317415 -0.0564156)
(0.0758432 0.0488908 -0.0674009)
(-0.0198048 -0.0226424 -0.0162415)
(-0.0558055 -0.0203731 -0.0368625)
(-0.0652288 -0.00623157 -0.0596452)
(-0.0415317 0.00957341 -0.0815364)
(0.013581 0.0208889 -0.100996)
(0.00525761 -0.0169678 0.0435131)
(-0.00340287 -0.00450229 0.0696934)
(-0.0549582 0.0139463 0.0853515)
(-0.110258 0.020904 0.106726)
(-0.167539 0.023315 0.131806)
(-0.041418 0.00435353 0.0941746)
(-0.112247 0.0434591 0.114685)
(-0.179033 0.0627311 0.125425)
(-0.240953 0.0669015 0.139497)
(-0.295613 0.0599457 0.151313)
(-0.0511569 0.0701128 0.111053)
(-0.127666 0.0993241 0.124112)
(-0.196992 0.113807 0.122998)
(-0.256106 0.113044 0.115496)
(-0.305971 0.0957263 0.095741)
(-0.0412005 0.12507 0.125999)
(-0.113654 0.156252 0.12808)
(-0.180442 0.169058 0.105692)
(-0.236817 0.167189 0.0652466)
(-0.285105 0.148293 0.000524391)
(-0.0330789 0.170942 0.142534)
(-0.10281 0.206947 0.134357)
(-0.169799 0.217089 0.0932368)
(-0.228688 0.21026 0.0295663)
(-0.283782 0.185329 -0.0537269)
(-0.0291357 0.210526 0.159037)
(-0.100059 0.255058 0.143764)
(-0.170213 0.265121 0.0900346)
(-0.233367 0.257372 0.0136865)
(-0.294 0.232261 -0.073993)
(-0.0274707 0.24791 0.172526)
(-0.101343 0.30295 0.153848)
(-0.174861 0.314934 0.0933236)
(-0.240199 0.309342 0.012059)
(-0.300871 0.287454 -0.073448)
(-0.0263017 0.283678 0.18158)
(-0.103045 0.350275 0.16313)
(-0.178926 0.364832 0.100493)
(-0.244568 0.362131 0.01847)
(-0.303 0.343157 -0.0644796)
(-0.0244 0.317083 0.185715)
(-0.102586 0.396129 0.170685)
(-0.179015 0.413505 0.109445)
(-0.243065 0.414278 0.0289252)
(-0.297615 0.399473 -0.0524909)
(-0.0213266 0.346615 0.185082)
(-0.0988317 0.438935 0.176025)
(-0.173669 0.458873 0.118949)
(-0.234244 0.462914 0.0419449)
(-0.283375 0.45263 -0.0378581)
(-0.0172807 0.370845 0.18014)
(-0.0919653 0.477277 0.178783)
(-0.16338 0.499057 0.128049)
(-0.219082 0.505841 0.0565889)
(-0.26178 0.500331 -0.0205921)
(-0.0126995 0.388811 0.171438)
(-0.0829478 0.510122 0.178624)
(-0.1495 0.532667 0.135708)
(-0.199434 0.540505 0.0720817)
(-0.235203 0.537514 0.00110216)
(-0.00815392 0.400308 0.159663)
(-0.0731166 0.537147 0.175355)
(-0.134541 0.559727 0.140533)
(-0.179232 0.566767 0.0856124)
(-0.209188 0.563573 0.022386)
(-0.00404328 0.405846 0.14568)
(-0.0633351 0.558707 0.169199)
(-0.119906 0.581281 0.142046)
(-0.16041 0.586833 0.0956904)
(-0.185913 0.582506 0.0406962)
(-0.000585882 0.406259 0.130411)
(-0.0541021 0.575368 0.160681)
(-0.106287 0.598331 0.140427)
(-0.14374 0.602456 0.101933)
(-0.166436 0.597274 0.0549121)
(0.00215335 0.402474 0.11471)
(-0.0456226 0.587739 0.150452)
(-0.0938427 0.611716 0.136171)
(-0.128929 0.614828 0.104567)
(-0.15002 0.609507 0.0647108)
(0.00420783 0.395365 0.0992765)
(-0.0379261 0.596382 0.139172)
(-0.0825178 0.622075 0.129928)
(-0.115611 0.624661 0.104208)
(-0.135852 0.619808 0.0705641)
(0.0056623 0.385673 0.0846355)
(-0.0309445 0.601779 0.127428)
(-0.0721446 0.629889 0.122361)
(-0.103418 0.632435 0.101601)
(-0.123215 0.628587 0.0732759)
(0.00661688 0.37397 0.0711276)
(-0.0245626 0.604316 0.115698)
(-0.0624976 0.63551 0.114056)
(-0.091973 0.638457 0.0974587)
(-0.111396 0.636042 0.0736751)
(0.00717648 0.360662 0.0589606)
(-0.0186456 0.604277 0.104319)
(-0.0533455 0.639175 0.105487)
(-0.0809483 0.642894 0.0923989)
(-0.0998771 0.642201 0.072533)
(0.0074238 0.346055 0.0482139)
(-0.0130704 0.601807 0.0934886)
(-0.0444764 0.641025 0.0969971)
(-0.070067 0.645816 0.0869077)
(-0.0882912 0.647028 0.0704863)
(0.0072856 0.33034 0.0388892)
(-0.00777679 0.59694 0.0833239)
(-0.0356589 0.641113 0.0888055)
(-0.0590877 0.647222 0.0813369)
(-0.0763461 0.650439 0.0680196)
(0.0067351 0.314316 0.0308943)
(-0.00266415 0.58906 0.0738271)
(-0.026691 0.639387 0.0810409)
(-0.0477885 0.647051 0.0759152)
(-0.0637821 0.652299 0.0654735)
(0.00603794 0.297792 0.0239166)
(0.0023879 0.578041 0.0650258)
(-0.0174376 0.635669 0.0737667)
(-0.0359621 0.645172 0.070784)
(-0.0503723 0.652409 0.0630593)
(0.00548617 0.28058 0.0178968)
(0.00738987 0.563619 0.0568449)
(-0.00783201 0.629748 0.0669925)
(-0.0233779 0.641385 0.0660156)
(-0.0359066 0.650508 0.060899)
(0.00524953 0.262442 0.0128046)
(0.0122438 0.546099 0.049255)
(0.00225337 0.620778 0.060611)
(-0.00988356 0.635481 0.0616146)
(-0.0201939 0.646297 0.0590447)
(0.00527951 0.24311 0.00852038)
(0.0171123 0.525213 0.0421904)
(0.0127208 0.608465 0.054533)
(0.00464324 0.627028 0.0574863)
(-0.00312134 0.639473 0.0574677)
(0.00552576 0.22224 0.00489311)
(0.0220499 0.500794 0.0356761)
(0.0235589 0.592391 0.0486802)
(0.0200944 0.615731 0.0534611)
(0.0154368 0.629716 0.0559423)
(0.00596053 0.199511 0.00182562)
(0.0270307 0.472659 0.0297165)
(0.0346635 0.572143 0.0430221)
(0.0363751 0.601068 0.0494446)
(0.0354277 0.61674 0.0542799)
(0.00656098 0.174825 -0.000720242)
(0.031996 0.440643 0.0242595)
(0.0458454 0.547371 0.037503)
(0.0532103 0.582554 0.0453344)
(0.0566466 0.600106 0.0523412)
(0.00732627 0.148116 -0.00282692)
(0.0368549 0.40469 0.0192334)
(0.0568394 0.517832 0.0320947)
(0.0701557 0.559762 0.0409478)
(0.078571 0.579476 0.0498186)
(0.0082894 0.11909 -0.00465102)
(0.0414791 0.364728 0.0145414)
(0.0673022 0.483287 0.0267635)
(0.086641 0.532261 0.0361037)
(0.10053 0.554494 0.0463751)
(0.00949678 0.0874412 -0.00611214)
(0.0457502 0.320888 0.0100207)
(0.0768197 0.443625 0.0213792)
(0.101877 0.499733 0.0307183)
(0.121382 0.52492 0.0415391)
(0.0110446 0.0524066 -0.00988686)
(0.0494025 0.272403 0.00459353)
(0.084727 0.398898 0.0155317)
(0.114925 0.461934 0.0247236)
(0.139901 0.490708 0.0352101)
(0.0126888 0.00934448 -0.0179751)
(0.0515896 0.219584 -0.00229096)
(0.089954 0.348982 0.0087303)
(0.124651 0.418705 0.0178655)
(0.154824 0.451575 0.0275723)
(0.00772944 -0.0366261 -0.0193967)
(0.0496178 0.164024 -0.00791836)
(0.0904008 0.293773 0.00134067)
(0.129251 0.369858 0.00980652)
(0.164402 0.40705 0.0183903)
(-0.000342674 -0.0596683 -0.0165314)
(0.0419807 0.109256 -0.0123348)
(0.0845874 0.235162 -0.00657309)
(0.12645 0.314394 4.27175e-05)
(0.166132 0.356059 0.00696142)
(-0.00627883 -0.0732323 -0.0158558)
(0.029184 0.0570223 -0.018905)
(0.0715747 0.17571 -0.0154394)
(0.113898 0.254203 -0.0115609)
(0.156857 0.29686 -0.00758129)
(-0.0112039 -0.0728347 -0.0164132)
(0.0060921 0.0135031 -0.0257609)
(0.0474938 0.120595 -0.024418)
(0.0885122 0.192294 -0.024912)
(0.13378 0.231698 -0.0251633)
(-0.0172426 -0.0574147 -0.0178365)
(-0.0310996 -0.018965 -0.0292137)
(0.00204839 0.0646206 -0.0354471)
(0.044621 0.125529 -0.042652)
(0.094141 0.155151 -0.0480506)
(-0.024901 -0.0203621 -0.0183899)
(-0.0691926 -0.00353683 -0.0370597)
(-0.0694705 0.0262922 -0.0529243)
(-0.0353365 0.0586322 -0.0674379)
(0.0284255 0.0777886 -0.0809524)
(0.0063361 -0.0123293 0.0435905)
(0.0026603 0.00412826 0.0729553)
(-0.0437353 0.0243711 0.0866668)
(-0.0956252 0.033362 0.103614)
(-0.15063 0.0384596 0.124838)
(-0.0274986 0.0242371 0.105407)
(-0.0792672 0.0688256 0.116842)
(-0.135704 0.0964683 0.120718)
(-0.192093 0.111391 0.129321)
(-0.246576 0.11689 0.137678)
(-0.0321506 0.0957492 0.121635)
(-0.08761 0.139522 0.125887)
(-0.14272 0.171905 0.116327)
(-0.195626 0.19191 0.103624)
(-0.247636 0.197171 0.0838385)
(-0.0204638 0.155931 0.133357)
(-0.0664106 0.205379 0.129499)
(-0.114095 0.240006 0.102612)
(-0.162227 0.260388 0.0650576)
(-0.213706 0.259209 0.0117921)
(-0.00871042 0.20368 0.146138)
(-0.0432959 0.260257 0.136871)
(-0.0842758 0.295083 0.0962985)
(-0.131321 0.310616 0.0415421)
(-0.190839 0.294005 -0.0306395)
(-7.21974e-05 0.241096 0.159706)
(-0.025149 0.307455 0.148118)
(-0.0607542 0.343348 0.0983727)
(-0.107579 0.355783 0.031679)
(-0.178247 0.327854 -0.0506013)
(0.00554486 0.272569 0.171696)
(-0.0124478 0.350123 0.160623)
(-0.0431182 0.387616 0.105759)
(-0.0870448 0.399535 0.0317837)
(-0.165615 0.367216 -0.0545341)
(0.00907781 0.30074 0.18036)
(-0.00371424 0.389433 0.172514)
(-0.0298147 0.428849 0.115567)
(-0.068045 0.44203 0.0377788)
(-0.151261 0.408804 -0.0515084)
(0.0117263 0.326195 0.184744)
(0.00299709 0.425893 0.182426)
(-0.0185613 0.467224 0.125911)
(-0.0485774 0.483292 0.0468251)
(-0.13021 0.453012 -0.044642)
(0.0141641 0.348268 0.184599)
(0.00900521 0.45932 0.189407)
(-0.00762422 0.501761 0.136086)
(-0.0273013 0.521399 0.0582148)
(-0.100253 0.49602 -0.0328477)
(0.0164489 0.366096 0.180163)
(0.0147672 0.489224 0.192831)
(0.00335831 0.53114 0.145581)
(-0.00538156 0.553928 0.0712733)
(-0.0618823 0.534109 -0.0157622)
(0.0183859 0.378994 0.171978)
(0.0201186 0.514852 0.192812)
(0.0137781 0.555176 0.152375)
(0.0143487 0.577942 0.0860582)
(-0.0199482 0.562013 0.0060061)
(0.0197101 0.386849 0.160765)
(0.0243031 0.536122 0.189516)
(0.0220881 0.574568 0.156036)
(0.0278523 0.594055 0.0975874)
(0.0111644 0.580342 0.02747)
(0.0203248 0.390124 0.147396)
(0.0271963 0.553442 0.183358)
(0.027946 0.590844 0.156663)
(0.0362147 0.605959 0.105684)
(0.0311436 0.593011 0.0440273)
(0.020257 0.389485 0.132772)
(0.0289728 0.567229 0.174913)
(0.0316824 0.604858 0.154608)
(0.040884 0.615861 0.110617)
(0.0425755 0.602819 0.0565158)
(0.019604 0.385623 0.1177)
(0.0298679 0.577834 0.164792)
(0.0337967 0.61701 0.150299)
(0.0429611 0.624827 0.112677)
(0.0482646 0.611362 0.065194)
(0.0185047 0.37919 0.102848)
(0.0301384 0.585557 0.153588)
(0.0348395 0.627493 0.144244)
(0.0435065 0.633309 0.112354)
(0.0505484 0.619708 0.0707481)
(0.0171082 0.370741 0.0887126)
(0.0300272 0.590627 0.141825)
(0.035298 0.636352 0.136956)
(0.0433781 0.64133 0.110183)
(0.0511371 0.628117 0.0738662)
(0.015549 0.360709 0.0756259)
(0.0297395 0.593214 0.129932)
(0.0355554 0.643551 0.128894)
(0.0431867 0.648718 0.106662)
(0.0511127 0.636457 0.0751227)
(0.0139394 0.349412 0.0637749)
(0.029441 0.593429 0.118232)
(0.0359062 0.649011 0.120441)
(0.0433592 0.655244 0.102232)
(0.0512783 0.644455 0.0750339)
(0.0123659 0.337063 0.0532163)
(0.0292589 0.59132 0.106942)
(0.0365678 0.652628 0.111893)
(0.044176 0.660659 0.0972713)
(0.0521427 0.651782 0.074056)
(0.0108584 0.323761 0.0438534)
(0.0292746 0.586875 0.0962346)
(0.0377091 0.654268 0.103464)
(0.0458205 0.664719 0.0920782)
(0.0540206 0.658118 0.0725649)
(0.00945829 0.309584 0.0356034)
(0.0295611 0.579959 0.0861943)
(0.0394524 0.65376 0.0952962)
(0.0484177 0.667181 0.0868717)
(0.0571086 0.663161 0.0708503)
(0.00823195 0.294484 0.0284704)
(0.0301773 0.5704 0.0768155)
(0.0418821 0.65088 0.0874709)
(0.0520616 0.667794 0.0817959)
(0.0615414 0.666622 0.0691159)
(0.00724798 0.278325 0.0224056)
(0.031148 0.557968 0.0680251)
(0.0450393 0.645382 0.0800623)
(0.0568314 0.666289 0.0769332)
(0.0674153 0.668202 0.0674858)
(0.00654555 0.260918 0.0173112)
(0.0324874 0.542447 0.0597648)
(0.048951 0.636936 0.0730478)
(0.0627647 0.662372 0.0723132)
(0.0747986 0.667585 0.0660141)
(0.006116 0.242067 0.0130607)
(0.0342121 0.523597 0.0520516)
(0.0536152 0.625169 0.066317)
(0.0698651 0.655705 0.0678644)
(0.0837206 0.66444 0.0646676)
(0.00592941 0.221573 0.00951009)
(0.0362981 0.501186 0.0448772)
(0.0589886 0.609679 0.0598134)
(0.0781045 0.645883 0.0634715)
(0.0941995 0.658375 0.0633024)
(0.00594664 0.199269 0.00647799)
(0.0386763 0.475016 0.0381922)
(0.0649433 0.59008 0.0534871)
(0.0873513 0.632454 0.0590463)
(0.106155 0.648941 0.0617487)
(0.00613562 0.175051 0.00377791)
(0.0412424 0.444946 0.0319278)
(0.0712752 0.566025 0.0472721)
(0.0973567 0.614946 0.0544802)
(0.119398 0.635609 0.0598376)
(0.00647557 0.148958 0.00122087)
(0.0438427 0.410951 0.0260093)
(0.077669 0.537259 0.0410922)
(0.107668 0.59293 0.0496002)
(0.133384 0.617918 0.0572406)
(0.00695296 0.120945 -0.00120628)
(0.0462656 0.373098 0.0204114)
(0.0837195 0.503638 0.0349027)
(0.117726 0.565999 0.0442604)
(0.147518 0.595334 0.0536692)
(0.00761369 0.0908869 -0.00337894)
(0.0482755 0.331617 0.0152893)
(0.0888677 0.465201 0.0287365)
(0.126627 0.5339 0.038324)
(0.16046 0.567516 0.0486334)
(0.008578 0.0582945 -0.0037901)
(0.04957 0.28672 0.0110674)
(0.0924366 0.422194 0.0228256)
(0.133413 0.49668 0.0318621)
(0.17103 0.53457 0.0420416)
(0.0102384 0.0219302 -0.00147363)
(0.0500159 0.238792 0.00798834)
(0.0936955 0.375029 0.0175139)
(0.137087 0.45449 0.0251731)
(0.178123 0.496467 0.0341811)
(0.00566868 -0.0275586 -0.00555085)
(0.0473025 0.187857 0.00421671)
(0.0909788 0.32403 0.0125904)
(0.136165 0.407415 0.0185953)
(0.18016 0.45298 0.0255521)
(-0.00333405 -0.051545 -0.0126074)
(0.0391905 0.136424 -0.00108419)
(0.0830751 0.269978 0.00727193)
(0.129155 0.355487 0.012116)
(0.175424 0.40363 0.0168793)
(-0.0101861 -0.065908 -0.0169536)
(0.0256182 0.0848407 -0.00799669)
(0.0691823 0.213278 0.000906903)
(0.114075 0.298535 0.00543603)
(0.16163 0.347551 0.00847493)
(-0.0142926 -0.0653734 -0.0189227)
(0.00154583 0.0360678 -0.0136501)
(0.0449124 0.157312 -0.00578735)
(0.0876281 0.2364 -0.0013663)
(0.136202 0.282209 0.00069371)
(-0.0198426 -0.0533766 -0.016652)
(-0.0330836 -0.00143222 -0.0170079)
(-0.000898748 0.0951267 -0.0120725)
(0.0437197 0.163739 -0.00737247)
(0.0957742 0.198962 -0.00605455)
(-0.0282443 -0.0183355 -0.0098609)
(-0.077705 0.00681426 -0.0129765)
(-0.0741582 0.046313 -0.00986216)
(-0.0376 0.084559 -0.0076068)
(0.0283923 0.108018 -0.006498)
(0.00605009 -0.00863972 0.0297731)
(0.0130115 0.00824867 0.0524706)
(-0.0204993 0.0303714 0.0633553)
(-0.066339 0.0413447 0.0721202)
(-0.119029 0.0489727 0.0841988)
(-0.00787057 0.0340096 0.0835134)
(-0.036823 0.0804208 0.0906531)
(-0.0794439 0.114342 0.0889784)
(-0.130675 0.137584 0.0899855)
(-0.187283 0.152834 0.0918435)
(-0.00779059 0.105796 0.097684)
(-0.0371399 0.157448 0.100216)
(-0.0762716 0.201744 0.0867597)
(-0.125661 0.236221 0.0713072)
(-0.185056 0.257564 0.053679)
(0.0026422 0.166539 0.104492)
(-0.013454 0.227065 0.104247)
(-0.0408493 0.276696 0.0802994)
(-0.0822372 0.315275 0.0496996)
(-0.140547 0.333938 0.0115241)
(0.0131388 0.215504 0.109967)
(0.0138994 0.282695 0.109558)
(0.000899192 0.334927 0.0798783)
(-0.0304185 0.372754 0.0407623)
(-0.0921786 0.379887 -0.00585512)
(0.0219024 0.2529 0.115512)
(0.038082 0.328425 0.115319)
(0.0378463 0.381085 0.0833947)
(0.0203607 0.418584 0.0419237)
(-0.0490123 0.415507 -0.00883927)
(0.0283492 0.281871 0.120477)
(0.0576448 0.366699 0.121338)
(0.0687109 0.419566 0.0879619)
(0.0642874 0.458075 0.0465884)
(-0.00242615 0.453536 -0.000537165)
(0.0326738 0.305033 0.123976)
(0.0723673 0.39972 0.127092)
(0.0941056 0.452587 0.0926775)
(0.0998783 0.492291 0.0515896)
(0.0463744 0.495577 0.0134058)
(0.0354274 0.323799 0.125336)
(0.0830679 0.428665 0.131952)
(0.114692 0.481606 0.0970082)
(0.129817 0.521843 0.0558923)
(0.0918272 0.534148 0.0219849)
(0.0370834 0.338553 0.1242)
(0.0907294 0.453854 0.135395)
(0.131383 0.506672 0.100859)
(0.156622 0.546299 0.059565)
(0.135071 0.566161 0.0273895)
(0.037823 0.349164 0.12053)
(0.0958312 0.475203 0.137058)
(0.144218 0.527467 0.104174)
(0.179568 0.564845 0.0629729)
(0.175207 0.587801 0.0309905)
(0.0376629 0.355425 0.114574)
(0.0986323 0.492499 0.136843)
(0.15307 0.543739 0.106826)
(0.197243 0.576821 0.0669139)
(0.211074 0.596683 0.0354708)
(0.0365043 0.357513 0.106699)
(0.0988687 0.50602 0.134623)
(0.157035 0.5562 0.108311)
(0.206532 0.583815 0.0701346)
(0.232897 0.597156 0.038105)
(0.0344468 0.356053 0.0974245)
(0.0968611 0.516469 0.130512)
(0.156695 0.566378 0.108417)
(0.208988 0.588909 0.072533)
(0.24311 0.596371 0.0401072)
(0.0316962 0.35172 0.0873207)
(0.0931521 0.524384 0.124783)
(0.153049 0.575107 0.107076)
(0.20631 0.593545 0.0739583)
(0.244719 0.595963 0.0417135)
(0.028486 0.345125 0.0769208)
(0.0882739 0.530125 0.117783)
(0.147101 0.58277 0.104361)
(0.199978 0.598383 0.0743047)
(0.240434 0.596877 0.0429536)
(0.025054 0.336793 0.0666794)
(0.0827309 0.533923 0.109892)
(0.139809 0.589499 0.100473)
(0.191515 0.603607 0.0736002)
(0.232674 0.599539 0.043776)
(0.02161 0.327133 0.0569461)
(0.0769504 0.535887 0.10147)
(0.131949 0.595217 0.0956702)
(0.182121 0.608998 0.0719622)
(0.223205 0.603586 0.0441123)
(0.0183181 0.316443 0.0479596)
(0.0712631 0.53604 0.0928339)
(0.124097 0.599734 0.0902261)
(0.172649 0.614181 0.0695733)
(0.213238 0.608449 0.0439744)
(0.0152958 0.304918 0.0398601)
(0.0659125 0.534346 0.0842433)
(0.11667 0.602825 0.0843978)
(0.163689 0.618756 0.0666424)
(0.203587 0.613557 0.0434416)
(0.0126186 0.292663 0.032703)
(0.0610699 0.530719 0.0758925)
(0.109956 0.604246 0.0784084)
(0.155641 0.622336 0.06338)
(0.194837 0.618382 0.0426532)
(0.010317 0.279685 0.0264695)