/*--------------------------------*- C++ -*----------------------------------*\
| =========                 |                                                 |
| \\      /  F ield         | OpenFOAM: The Open Source CFD Toolbox           |
|  \\    /   O peration     | Version:  2.3.1                                 |
|   \\  /    A nd           | Web:      www.OpenFOAM.org                      |
|    \\/     M anipulation  |                                                 |
\*---------------------------------------------------------------------------*/
FoamFile
{
    version     2.0;
    format      ascii;
    class       volScalarField;
    location    "10";
    object      T;
}
// * * * * * * * * * * * * * * * * * * * * * * * * * * * * * * * * * * * * * //

dimensions      [0 0 0 1 0 0 0];

internalField   nonuniform List<scalar> 
1227
(
290.181
290.191
290.212
290.32
290.315
290.3
290.293
290.287
290.284
290.28
290.277
290.275
290.273
290.27
290.268
290.266
290.264
290.262
290.259
290.256
290.254
290.251
290.249
290.247
290.244
290.241
290.236
290.229
290.221
290.212
290.205
290.201
290.198
290.196
290.195
290.099
290.166
290.256
290.323
290.307
290.289
290.279
290.273
290.27
290.267
290.263
290.259
290.255
290.251
290.246
290.242
290.237
290.233
290.229
290.226
290.222
290.219
290.216
290.213
290.209
290.206
290.201
290.197
290.19
290.183
290.177
290.172
290.17
290.171
290.174
290.013
290.161
290.286
290.324
290.303
290.29
290.291
290.297
290.295
290.291
290.285
290.28
290.275
290.271
290.267
290.264
290.261
290.259
290.258
290.256
290.255
290.253
290.25
290.244
290.235
290.22
290.199
290.176
290.161
290.149
290.137
290.126
290.12
290.12
290.125
289.924
290.128
290.297
290.326
290.307
290.298
290.3
290.146
290.136
290.121
290.105
290.085
290.071
290.074
290.089
289.841
290.069
290.295
290.33
290.315
290.308
290.312
290.106
290.11
290.101
290.081
290.051
290.021
290.021
290.053
289.78
289.989
290.277
290.335
290.325
290.321
290.328
290.077
290.085
290.083
290.067
290.033
289.983
289.965
290.012
289.75
289.925
290.243
290.334
290.335
290.332
290.336
290.07
290.069
290.066
290.056
290.03
289.966
289.918
289.968
289.744
289.912
290.198
290.323
290.339
290.337
290.325
290.064
290.063
290.058
290.049
290.027
289.969
289.89
289.927
289.751
289.954
290.159
290.298
290.328
290.332
290.308
290.01
290.022
290.036
290.04
290.024
289.973
289.882
289.894
289.763
290.014
290.156
290.282
290.312
290.263
290.141
289.939
289.946
289.961
289.984
289.995
289.969
289.884
289.868
289.773
290.052
290.183
290.233
290.156
290.022
289.962
289.927
289.932
289.936
289.941
289.952
289.95
289.884
289.849
289.778
290.05
290.131
290.099
290.023
289.997
290.002
289.996
289.994
289.991
289.987
289.983
289.979
289.974
289.967
289.96
289.957
289.963
289.989
289.988
289.979
289.967
289.956
289.946
289.937
289.933
289.929
289.935
289.945
289.95
289.948
289.941
289.936
289.881
289.834
289.778
290.02
290.053
290.021
289.999
290.006
290.007
290.008
290.015
290.028
290.047
290.075
290.111
290.154
290.198
290.227
290.216
290.154
290.053
289.991
289.973
289.971
289.972
289.973
289.974
289.976
289.979
289.99
289.994
289.988
289.975
289.954
289.936
289.877
289.821
289.777
290.007
290.015
290.007
290.015
290.032
290.052
290.087
290.142
290.22
290.326
290.464
290.636
290.833
291.038
291.218
291.338
291.352
291.217
290.929
290.711
290.572
290.486
290.424
290.366
290.305
290.241
290.191
290.131
290.072
290.025
289.985
289.948
289.875
289.808
289.777
290.011
290.014
290.024
290.047
290.081
290.136
290.219
290.335
290.486
290.679
290.915
291.195
291.505
291.827
292.133
292.395
292.605
292.718
292.641
292.475
292.281
292.076
291.857
291.618
291.359
291.084
290.812
290.543
290.31
290.142
290.036
289.965
289.87
289.793
289.778
290.029
290.034
290.055
290.092
290.153
290.246
290.373
290.534
290.732
290.967
291.238
291.537
291.848
292.161
292.474
292.794
293.099
293.333
293.348
293.285
293.19
293.068
292.91
292.704
292.43
292.082
291.669
291.211
290.762
290.395
290.145
289.995
289.864
289.775
289.78
290.054
290.064
290.095
290.152
290.241
290.364
290.517
290.699
290.908
291.143
291.401
291.674
291.953
292.242
292.567
292.956
293.365
293.509
293.346
293.178
293.08
293.038
293.02
292.988
292.899
292.714
292.4
291.944
291.386
290.823
290.368
290.068
289.862
289.752
289.783
290.084
290.1
290.145
290.222
290.334
290.473
290.633
290.81
291.004
291.216
291.444
291.684
291.932
292.208
292.567
293.09
293.709
293.446
292.895
292.504
292.326
292.303
292.373
292.493
292.618
292.697
292.661
292.439
291.994
291.378
290.737
290.226
289.883
289.727
289.788
290.118
290.143
290.202
290.298
290.422
290.562
290.711
290.868
291.034
291.215
291.415
291.627
291.853
292.123
292.525
293.22
294.104
293.052
292.07
291.529
291.319
291.303
291.399
291.574
291.807
292.071
292.311
292.429
292.308
291.879
291.208
290.502
289.955
289.705
289.797
290.157
290.194
290.267
290.375
290.499
290.628
290.755
290.883
291.017
291.169
291.348
291.54
291.75
292.016
292.473
293.397
294.368
292.281
291.098
290.598
290.445
290.456
290.553
290.711
290.93
291.216
291.561
291.911
292.141
292.081
291.622
290.865
290.102
289.695
289.813
290.205
290.251
290.334
290.444
290.558
290.667
290.768
290.865
290.969
291.097
291.265
291.442
291.64
291.9
292.404
293.557
294.22
291.374
290.292
289.941
289.866
289.903
289.996
290.129
290.3
290.521
290.814
291.186
291.59
291.868
291.782
291.199
290.312
289.707
289.842
290.26
290.314
290.407
290.519
290.625
290.716
290.793
290.86
290.931
291.03
291.188
291.35
291.537
291.787
292.28
293.624
293.252
290.557
289.752
289.542
289.515
289.555
289.632
289.741
289.88
290.054
290.273
290.564
290.946
291.368
291.614
291.365
290.53
289.743
289.892
290.335
290.395
290.488
290.58
290.644
290.683
290.712
290.746
290.798
290.891
291.084
291.23
291.408
291.643
292.196
293.415
291.163
289.823
289.418
289.318
289.314
289.344
289.395
289.468
289.57
289.709
289.886
290.112
290.413
290.812
291.219
291.306
290.685
289.795
289.977
290.423
290.465
290.533
290.609
290.71
290.863
291.061
291.26
291.399
291.438
289.706
289.365
289.229
289.214
289.238
289.269
289.3
289.335
289.387
289.469
289.594
289.77
290.007
290.334
290.756
291.068
290.734
289.851
290.118
290.5
290.536
290.671
290.901
291.177
291.379
291.369
291.08
290.569
290.061
289.194
289.132
289.162
289.226
289.282
289.321
289.344
289.356
289.365
289.385
289.434
289.534
289.701
289.953
290.323
290.735
290.675
289.896
290.338
290.692
290.82
291.125
291.393
291.387
291.007
290.368
289.727
289.322
289.221
289.049
289.121
289.23
289.327
289.393
289.432
289.45
289.453
289.446
289.433
289.426
289.445
289.519
289.677
289.958
290.376
290.528
289.916
290.612
291.177
291.344
291.502
291.259
290.617
289.888
289.385
289.189
289.15
289.108
289.068
289.198
289.339
289.439
289.496
289.524
289.535
289.536
289.529
289.514
289.492
289.471
289.471
289.529
289.695
290.042
290.319
289.901
290.806
291.738
291.593
291.147
290.34
289.6
289.22
289.137
289.136
289.104
289.07
289.102
289.291
289.443
289.524
289.557
289.567
289.568
289.565
289.561
289.554
289.542
289.523
289.501
289.496
289.555
289.784
290.088
289.853
290.754
291.832
291.133
290.219
289.478
289.197
289.215
289.271
289.271
289.21
289.101
289.134
289.387
289.521
289.564
289.569
289.564
289.559
289.555
289.552
289.549
289.546
289.54
289.528
289.511
289.511
289.625
289.882
289.782
290.426
291.269
290.262
289.484
289.249
289.339
289.443
289.475
289.453
289.362
289.145
289.162
289.472
289.558
289.564
289.555
289.547
289.542
289.54
289.538
289.537
289.535
289.533
289.529
289.522
289.509
289.549
289.731
289.707
289.981
290.428
289.59
289.291
289.398
289.512
289.544
289.549
289.545
289.486
289.195
289.189
289.523
289.558
289.549
289.541
289.537
289.536
289.536
289.536
289.536
289.534
289.531
289.526
289.521
289.512
289.519
289.635
289.645
289.625
289.774
289.347
289.387
289.512
289.532
289.528
289.535
289.543
289.529
289.281
288.023
288.088
288.099
288.096
288.095
288.015
289.254
289.536
289.546
289.541
289.539
289.539
289.539
289.539
289.539
289.539
289.538
289.535
289.53
289.523
289.514
289.511
289.581
289.598
289.443
289.463
289.367
289.485
289.527
289.518
289.523
289.528
289.531
289.537
289.623
288.981
288.67
288.649
288.671
288.649
288.897
289.625
289.541
289.539
289.541
289.543
289.543
289.542
289.542
289.542
289.542
289.541
289.539
289.535
289.527
289.518
289.511
289.554
289.566
289.397
289.393
289.444
289.519
289.522
289.526
289.536
289.541
289.544
289.542
289.522
289.543
289.58
289.572
289.592
289.601
289.556
289.521
289.542
289.546
289.547
289.546
289.545
289.544
289.544
289.543
289.543
289.543
289.541
289.537
289.531
289.523
289.516
289.544
289.544
289.408
289.419
289.492
289.522
289.523
289.532
289.539
289.544
289.547
289.546
289.543
289.532
289.496
289.461
289.475
289.503
289.532
289.544
289.546
289.549
289.549
289.549
289.548
289.546
289.545
289.545
289.545
289.544
289.542
289.538
289.533
289.527
289.522
289.541
289.527
289.429
289.457
289.511
289.521
289.528
289.537
289.544
289.55
289.553
289.551
289.542
289.527
289.504
289.501
289.513
289.522
289.534
289.543
289.549
289.553
289.554
289.552
289.55
289.548
289.547
289.547
289.546
289.545
289.543
289.539
289.534
289.529
289.528
289.538
289.512
289.443
289.483
289.515
289.524
289.533
289.542
289.549
289.556
289.559
289.557
289.547
289.529
289.508
289.508
289.516
289.526
289.538
289.548
289.555
289.557
289.557
289.556
289.553
289.551
289.549
289.548
289.548
289.547
289.544
289.54
289.535
289.531
289.531
289.532
289.497
289.45
289.495
289.518
289.528
289.538
289.547
289.555
289.562
289.568
289.566
289.554
289.536
289.518
289.519
289.526
289.535
289.546
289.555
289.561
289.562
289.561
289.559
289.556
289.553
289.551
289.55
289.55
289.549
289.547
289.543
289.538
289.533
289.53
289.522
289.485
289.455
289.504
289.524
289.535
289.545
289.554
289.562
289.571
289.579
289.579
289.57
289.553
289.535
289.534
289.54
289.548
289.558
289.565
289.568
289.567
289.564
289.561
289.558
289.556
289.554
289.553
289.552
289.552
289.551
289.547
289.542
289.537
289.531
289.516
289.485
289.485
289.513
289.533
289.544
289.554
289.564
289.573
289.584
289.594
289.599
289.592
289.581
289.564
289.56
289.564
289.569
289.574
289.575
289.574
289.569
289.565
289.563
289.561
289.56
289.558
289.557
289.556
289.555
289.554
289.552
289.549
289.544
289.537
289.522
289.506
289.606
289.556
289.569
289.578
289.586
289.594
289.602
289.611
289.62
289.627
289.622
289.614
289.606
289.6
289.595
289.592
289.588
289.582
289.574
289.565
289.563
289.575
289.587
289.591
289.591
289.588
289.584
289.581
289.578
289.575
289.572
289.569
289.563
289.552
289.543
)
;

boundaryField
{
    floor
    {
        type            empty;
    }
    ceiling
    {
        type            empty;
    }
    fixedWalls
    {
        type            zeroGradient;
    }
    rack2796428BA49E0232CAC645AEBC8DA5C1_fixedWall
    {
        type            zeroGradient;
    }
    rack2796428BA49E0232CAC645AEBC8DA5C1_inlet
    {
        type            fixedValue;
        value           uniform 288.15;
    }
    rack2796428BA49E0232CAC645AEBC8DA5C1_outlet
    {
        type            zeroGradient;
    }
    acu380F56D59CF2B3DF6EFF9D0E6E8D39CB_fixedWall
    {
        type            zeroGradient;
    }
}


// ************************************************************************* //
