/*--------------------------------*- C++ -*----------------------------------*\
| =========                 |                                                 |
| \\      /  F ield         | OpenFOAM: The Open Source CFD Toolbox           |
|  \\    /   O peration     | Version:  2.3.1                                 |
|   \\  /    A nd           | Web:      www.OpenFOAM.org                      |
|    \\/     M anipulation  |                                                 |
\*---------------------------------------------------------------------------*/
FoamFile
{
    version     2.0;
    format      ascii;
    class       volVectorField;
    location    "10";
    object      U;
}
// * * * * * * * * * * * * * * * * * * * * * * * * * * * * * * * * * * * * * //

dimensions      [0 1 -1 0 0 0 0];

internalField   nonuniform List<vector> 
1227
(
(0.00675795 -0.00786035 0)
(0.0182905 -0.00770295 0)
(0.0134855 0.0027662 0)
(-0.017193 0.01504 0)
(-0.054024 0.018543 0)
(-0.0942275 0.01939 0)
(-0.138385 0.016354 0)
(-0.163625 0.00371235 0)
(-0.166 -0.00154435 0)
(-0.161915 -0.00390705 0)
(-0.15471 -0.0045151 0)
(-0.146125 -0.0041116 0)
(-0.13736 -0.0033431 0)
(-0.128735 -0.0025584 0)
(-0.120235 -0.0018924 0)
(-0.111725 -0.00138815 0)
(-0.10306 -0.0010389 0)
(-0.09413 -0.000812835 0)
(-0.084877 -0.000668905 0)
(-0.075328 -0.000577365 0)
(-0.065575 -0.000510455 0)
(-0.055785 -0.000428405 0)
(-0.046177 -0.000273125 0)
(-0.0370675 7.77575e-05 0)
(-0.0288565 0.000748705 0)
(-0.0221885 0.00191515 0)
(-0.01736 0.00383755 0)
(-0.016546 0.007132 0)
(-0.020759 0.0086781 0)
(-0.026383 0.0072649 0)
(-0.029601 0.00461725 0)
(-0.027932 0.00207095 0)
(-0.021602 0.000315118 0)
(-0.00894775 0.0016279 0)
(0.00037219 0.005267 0)
(0.00621605 -0.0268475 0)
(0.0106246 -0.014804 0)
(-0.00739925 0.0173645 0)
(-0.0329525 0.0396695 0)
(-0.065353 0.0503445 0)
(-0.100075 0.0555205 0)
(-0.143815 0.050575 0)
(-0.175955 0.0101552 0)
(-0.183605 -0.00350895 0)
(-0.189155 -0.00971585 0)
(-0.19101 -0.0120465 0)
(-0.190605 -0.0118815 0)
(-0.188975 -0.0105505 0)
(-0.18635 -0.00882035 0)
(-0.18274 -0.00705555 0)
(-0.178165 -0.00543765 0)
(-0.17258 -0.00404815 0)
(-0.165975 -0.0029188 0)
(-0.158345 -0.00204675 0)
(-0.149715 -0.0013874 0)
(-0.140245 -0.00088756 0)
(-0.13013 -0.00050067 0)
(-0.11956 -0.00017118 0)
(-0.10877 0.000185686 0)
(-0.0978105 0.00062227 0)
(-0.086897 0.00127478 0)
(-0.075837 0.0020539 0)
(-0.0657135 0.0042408 0)
(-0.0608375 0.00549685 0)
(-0.0613925 0.0041822 0)
(-0.0629655 0.000522455 0)
(-0.061095 -0.0046546 0)
(-0.052974 -0.0097058 0)
(-0.0370375 -0.0115885 0)
(-0.015989 -0.0056221 0)
(0.00459345 -0.039409 0)
(0.00252995 -0.0119206 0)
(-0.014827 0.030325 0)
(-0.034118 0.0592895 0)
(-0.0569765 0.0763125 0)
(-0.0807845 0.0896395 0)
(-0.11237 0.100516 0)
(-0.13418 0.043769 0)
(-0.10306 0.0173215 0)
(-0.103305 0.00522615 0)
(-0.10775 -0.000288005 0)
(-0.111135 -0.00185405 0)
(-0.113275 -0.00162295 0)
(-0.113425 -0.000775685 0)
(-0.111385 0.000158947 0)
(-0.1073 0.000951285 0)
(-0.101455 0.0015137 0)
(-0.0941505 0.0018225 0)
(-0.085752 0.0018922 0)
(-0.076618 0.0018013 0)
(-0.0669695 0.00163705 0)
(-0.0570645 0.00143755 0)
(-0.0471135 0.0012192 0)
(-0.037393 0.00096676 0)
(-0.027973 0.00060967 0)
(-0.0196635 0.000106441 0)
(-0.0114304 -0.000800605 0)
(-0.0115927 0.00157325 0)
(-0.0209265 0.00374995 0)
(-0.031296 0.00205299 0)
(-0.0405095 -0.00297821 0)
(-0.0461155 -0.0108831 0)
(-0.044432 -0.01977 0)
(-0.0335125 -0.026159 0)
(-0.014955 -0.0262275 0)
(0.0041336 -0.0489185 0)
(0.000949295 -0.0110584 0)
(-0.012146 0.037099 0)
(-0.0245915 0.068144 0)
(-0.034352 0.0848625 0)
(-0.0376315 0.0947485 0)
(-0.0269175 0.094727 0)
(-0.00076493 0.00690675 0)
(-0.0049716 0.0097573 0)
(-0.0122754 0.0077107 0)
(-0.021322 0.0013851 0)
(-0.0301915 -0.00992545 0)
(-0.033184 -0.024022 0)
(-0.026706 -0.035876 0)
(-0.011753 -0.039478 0)
(0.00422825 -0.0579005 0)
(0.00125475 -0.0126373 0)
(-0.00931835 0.0385805 0)
(-0.018296 0.068867 0)
(-0.023019 0.081127 0)
(-0.0223125 0.079312 0)
(-0.011154 0.050371 0)
(0.00173538 0.0083347 0)
(0.003211 0.013683 0)
(0.00054475 0.0124979 0)
(-0.00575185 0.00612525 0)
(-0.01556 -0.0071897 0)
(-0.0225165 -0.025793 0)
(-0.020369 -0.0430935 0)
(-0.0088283 -0.0497155 0)
(0.0047279 -0.067263 0)
(0.0025666 -0.0166515 0)
(-0.00599255 0.0372815 0)
(-0.0121685 0.06682 0)
(-0.0136505 0.0764575 0)
(-0.010451 0.0709625 0)
(-0.00347975 0.040412 0)
(0.00280505 0.00791375 0)
(0.0082709 0.014421 0)
(0.009586 0.014538 0)
(0.006492 0.0093504 0)
(-0.0023327 -0.0041259 0)
(-0.0126932 -0.0259755 0)
(-0.015255 -0.0483655 0)
(-0.00663255 -0.0571885 0)
(0.0050557 -0.0776605 0)
(0.00294145 -0.0230095 0)
(-0.0044407 0.0328545 0)
(-0.00899905 0.061316 0)
(-0.0086939 0.068292 0)
(-0.0043834 0.060149 0)
(0.00063458 0.0275935 0)
(0.0033923 0.0035607 0)
(0.0117085 0.0110773 0)
(0.016038 0.0128719 0)
(0.0153885 0.0093969 0)
(0.0083392 -0.00286405 0)
(-0.00346837 -0.0261285 0)
(-0.011343 -0.0527185 0)
(-0.00527635 -0.063466 0)
(0.00493565 -0.088374 0)
(0.00191253 -0.030351 0)
(-0.00504255 0.027085 0)
(-0.0090381 0.054755 0)
(-0.00781655 0.060066 0)
(-0.00261052 0.05148 0)
(0.00268295 0.0238305 0)
(0.0041761 0.00090205 0)
(0.0152695 0.00642165 0)
(0.0218365 0.0093568 0)
(0.0227725 0.00757565 0)
(0.0166175 -0.00337475 0)
(0.00502055 -0.026702 0)
(-0.00778065 -0.056867 0)
(-0.0047148 -0.069543 0)
(0.004057 -0.0988065 0)
(-0.000976245 -0.0379865 0)
(-0.00851615 0.0202324 0)
(-0.0133557 0.046815 0)
(-0.0122728 0.0496435 0)
(-0.0058518 0.0388675 0)
(0.00245305 0.0124236 0)
(0.00561995 -0.0108035 0)
(0.0196695 -0.00372375 0)
(0.0280455 0.0022038 0)
(0.0298 0.00334985 0)
(0.023665 -0.005613 0)
(0.0122162 -0.028335 0)
(-0.00373285 -0.0609805 0)
(-0.00470055 -0.0757265 0)
(0.0021131 -0.10733 0)
(-0.00638165 -0.043904 0)
(-0.016684 0.0151439 0)
(-0.02496 0.0413385 0)
(-0.0268285 0.042748 0)
(-0.021473 0.030934 0)
(-0.0055386 0.019069 0)
(0.0126295 -0.012311 0)
(0.031979 -0.0113188 0)
(0.03984 -0.0033715 0)
(0.0403315 -2.09e-05 0)
(0.0324305 -0.00746854 0)
(0.0194535 -0.0298375 0)
(0.00144618 -0.0644675 0)
(-0.0044632 -0.081395 0)
(3.446e-05 -0.11316 0)
(-0.0123625 -0.047183 0)
(-0.027202 0.0124819 0)
(-0.040402 0.0372925 0)
(-0.047904 0.0329915 0)
(-0.0430725 0.00653285 0)
(-0.0286045 -0.0404265 0)
(0.029437 -0.0600475 0)
(0.0483005 -0.032533 0)
(0.0550385 -0.0132544 0)
(0.0522725 -0.00442505 0)
(0.041803 -0.00908522 0)
(0.026475 -0.0308025 0)
(0.00708565 -0.0667735 0)
(-0.00364365 -0.0859245 0)
(-0.00222015 -0.11514 0)
(-0.0206305 -0.0453655 0)
(-0.0439625 0.0164694 0)
(-0.0676455 0.0435845 0)
(-0.091651 0.040316 0)
(-0.113215 0.0151457 0)
(-0.148515 -0.025814 0)
(-0.18126 -0.0052936 0)
(-0.180505 0.000687035 0)
(-0.18264 0.0018495 0)
(-0.180265 0.00150201 0)
(-0.17269 0.000287885 0)
(-0.159995 -0.00154989 0)
(-0.141525 -0.00354345 0)
(-0.11763 -0.0051398 0)
(-0.088588 -0.00597795 0)
(-0.0555395 -0.00530025 0)
(-0.02153 -0.00136842 0)
(0.00785295 0.011179 0)
(0.0175725 0.018977 0)
(0.023919 0.0167685 0)
(0.032532 0.011399 0)
(0.0455605 0.00434625 0)
(0.0622775 -0.0024135 0)
(0.079408 -0.00802315 0)
(0.0968655 -0.015294 0)
(0.13006 -0.030115 0)
(0.11833 -0.0611465 0)
(0.100068 -0.032647 0)
(0.0884875 -0.0119548 0)
(0.073366 -0.0020925 0)
(0.0558375 -0.0069367 0)
(0.0354655 -0.029502 0)
(0.013284 -0.066968 0)
(-0.00213365 -0.0887855 0)
(-0.0035221 -0.112935 0)
(-0.0265925 -0.0371415 0)
(-0.055992 0.0280765 0)
(-0.085759 0.059975 0)
(-0.116055 0.0645675 0)
(-0.145 0.052632 0)
(-0.18431 0.0346105 0)
(-0.217545 0.038264 0)
(-0.232795 0.0341295 0)
(-0.242155 0.029381 0)
(-0.245455 0.024649 0)
(-0.24312 0.0195425 0)
(-0.23515 0.0134205 0)
(-0.22084 0.00586955 0)
(-0.19885 -0.00283865 0)
(-0.16862 -0.0108287 0)
(-0.130785 -0.015752 0)
(-0.086382 -0.0147225 0)
(-0.038463 -0.00244455 0)
(0.0144945 0.0145955 0)
(0.054025 0.0153295 0)
(0.0879225 0.0085628 0)
(0.11618 0.000498465 0)
(0.1378 -0.0050142 0)
(0.15271 -0.0073161 0)
(0.162195 -0.0081124 0)
(0.166775 -0.0102127 0)
(0.150385 -0.0246275 0)
(0.12667 -0.0113008 0)
(0.108985 0.00239275 0)
(0.0885945 0.00804435 0)
(0.0670135 1.75e-05 0)
(0.0431075 -0.02486 0)
(0.018371 -0.064589 0)
(-0.000698795 -0.089952 0)
(-0.0042365 -0.10809 0)
(-0.031585 -0.0263452 0)
(-0.0660225 0.040994 0)
(-0.100155 0.076017 0)
(-0.13284 0.0858575 0)
(-0.16298 0.080836 0)
(-0.194295 0.0682615 0)
(-0.219015 0.064671 0)
(-0.232335 0.0595645 0)
(-0.239835 0.054226 0)
(-0.24179 0.048641 0)
(-0.23868 0.04235 0)
(-0.230495 0.0338175 0)
(-0.216655 0.021907 0)
(-0.19642 0.0068003 0)
(-0.16861 -0.00929345 0)
(-0.132575 -0.022367 0)
(-0.0883315 -0.0288005 0)
(-0.038649 -0.024484 0)
(0.01985 -0.0118955 0)
(0.0682645 -0.00471015 0)
(0.108002 -0.00470675 0)
(0.13792 -0.00683005 0)
(0.159185 -0.00808805 0)
(0.1727 -0.00790085 0)
(0.179595 -0.0065412 0)
(0.17967 -0.00477405 0)
(0.166425 -0.00478145 0)
(0.145475 0.00671835 0)
(0.125095 0.016147 0)
(0.102273 0.0184629 0)
(0.0774025 0.00786965 0)
(0.050181 -0.0188914 0)
(0.0225965 -0.060577 0)
(0.00054213 -0.089867 0)
(-0.00430825 -0.101356 0)
(-0.0347785 -0.0130041 0)
(-0.0726665 0.055323 0)
(-0.109445 0.092333 0)
(-0.14252 0.106043 0)
(-0.17086 0.105796 0)
(-0.195795 0.0983155 0)
(-0.21435 0.0925965 0)
(-0.22421 0.0858575 0)
(-0.227965 0.0793145 0)
(-0.22627 0.0729715 0)
(-0.22003 0.0658475 0)
(-0.209555 0.0552215 0)
(-0.194115 0.040191 0)
(-0.173125 0.0203495 0)
(-0.14586 -0.0028276 0)
(-0.1116 -0.024438 0)
(-0.0700995 -0.0396875 0)
(-0.0234465 -0.0436155 0)
(0.029841 -0.0344365 0)
(0.0752535 -0.0234175 0)
(0.114145 -0.016628 0)
(0.14383 -0.012246 0)
(0.1652 -0.0080662 0)
(0.17852 -0.0031244 0)
(0.18484 0.00281735 0)
(0.183795 0.00902405 0)
(0.173345 0.0143735 0)
(0.156225 0.023693 0)
(0.136315 0.030199 0)
(0.112655 0.029709 0)
(0.0856955 0.0171452 0)
(0.055784 -0.0112393 0)
(0.025575 -0.0550915 0)
(0.00133235 -0.088825 0)
(-0.00415805 -0.093927 0)
(-0.036991 -3e-05 0)
(-0.0773 0.0685265 0)
(-0.1157 0.106371 0)
(-0.14852 0.122095 0)
(-0.17475 0.12425 0)
(-0.1947 0.119025 0)
(-0.20747 0.112725 0)
(-0.21241 0.105815 0)
(-0.211155 0.09963 0)
(-0.204605 0.0939645 0)
(-0.19455 0.087373 0)
(-0.181555 0.0762705 0)
(-0.1642 0.059727 0)
(-0.14245 0.0365515 0)
(-0.11549 0.00762315 0)
(-0.083792 -0.021855 0)
(-0.0467185 -0.0458525 0)
(-0.00513005 -0.0577435 0)
(0.039645 -0.0524415 0)
(0.0804165 -0.0387975 0)
(0.11645 -0.026796 0)
(0.145155 -0.016948 0)
(0.166625 -0.00821425 0)
(0.18062 0.00033045 0)
(0.187795 0.00932455 0)
(0.187865 0.018502 0)
(0.18004 0.027196 0)
(0.16559 0.036288 0)
(0.14622 0.0416115 0)
(0.1218 0.039694 0)
(0.092901 0.026032 0)
(0.0605045 -0.0032875 0)
(0.027712 -0.0488445 0)
(0.0016623 -0.0871895 0)
(-0.0038429 -0.0866225 0)
(-0.038414 0.012189 0)
(-0.080221 0.0804725 0)
(-0.11935 0.118455 0)
(-0.151405 0.13514 0)
(-0.175365 0.138555 0)
(-0.191175 0.13458 0)
(-0.19884 0.128245 0)
(-0.198405 0.121355 0)
(-0.19145 0.115865 0)
(-0.179125 0.111205 0)
(-0.165025 0.106985 0)
(-0.14992 0.0970475 0)
(-0.131055 0.0809225 0)
(-0.109645 0.056251 0)
(-0.0843535 0.0230995 0)
(-0.056796 -0.0135245 0)
(-0.0254175 -0.0463415 0)
(0.0105997 -0.065627 0)
(0.047765 -0.063697 0)
(0.084696 -0.0492335 0)
(0.11846 -0.03365 0)
(0.14677 -0.019626 0)
(0.168855 -0.00716155 0)
(0.184075 0.00451675 0)
(0.192355 0.016053 0)
(0.1936 0.0274185 0)
(0.18744 0.0379335 0)
(0.17443 0.0470605 0)
(0.15525 0.0518605 0)
(0.129995 0.0491815 0)
(0.099289 0.034934 0)
(0.064501 0.005028 0)
(0.0291825 -0.041999 0)
(0.00154655 -0.0851285 0)
(-0.00356105 -0.0802595 0)
(-0.0394645 0.0227421 0)
(-0.082034 0.0904235 0)
(-0.12129 0.128 0)
(-0.152245 0.14475 0)
(-0.17387 0.14839 0)
(-0.185885 0.144605 0)
(-0.188675 0.13791 0)
(-0.18247 0.13082 0)
(-0.169285 0.126005 0)
(-0.150565 0.12313 0)
(-0.13272 0.12381 0)
(-0.11708 0.1167 0)
(-0.0976325 0.103253 0)
(-0.07851 0.0795485 0)
(-0.057039 0.044159 0)
(-0.0357005 0.0020073 0)
(-0.0110108 -0.041389 0)
(0.019942 -0.068185 0)
(0.052773 -0.0704615 0)
(0.0878805 -0.056591 0)
(0.120955 -0.038912 0)
(0.14986 -0.022025 0)
(0.17304 -0.00682415 0)
(0.18956 0.0073404 0)
(0.19891 0.02104 0)
(0.20111 0.034293 0)
(0.195915 0.0463005 0)
(0.18351 0.055921 0)
(0.16414 0.060746 0)
(0.137915 0.057857 0)
(0.105441 0.0434255 0)
(0.0682855 0.01324 0)
(0.0303505 -0.034989 0)
(0.00110898 -0.0827625 0)
(-0.0033436 -0.07516 0)
(-0.0402745 0.031218 0)
(-0.083129 0.098293 0)
(-0.122105 0.135105 0)
(-0.151745 0.151245 0)
(-0.171015 0.15428 0)
(-0.179455 0.14978 0)
(-0.17757 0.14204 0)
(-0.165455 0.13401 0)
(-0.14583 0.129145 0)
(-0.120175 0.12857 0)
(-0.0996395 0.13728 0)
(-0.086278 0.1338 0)
(-0.066857 0.12481 0)
(-0.051953 0.104825 0)
(-0.0353685 0.070057 0)
(-0.0242625 0.025084 0)
(-0.00682955 -0.0320605 0)
(0.022033 -0.067867 0)
(0.0541465 -0.0755375 0)
(0.090029 -0.0629145 0)
(0.12416 -0.0438785 0)
(0.154555 -0.0247315 0)
(0.17912 -0.00715865 0)
(0.196785 0.0093021 0)
(0.206925 0.025053 0)
(0.209705 0.040044 0)
(0.20497 0.0533555 0)
(0.192725 0.0636325 0)
(0.17297 0.068753 0)
(0.145745 0.065972 0)
(0.11159 0.051633 0)
(0.0721875 0.0214697 0)
(0.0315465 -0.027784 0)
(0.00045795 -0.080112 0)
(-0.0031731 -0.071384 0)
(-0.041038 0.037658 0)
(-0.0839595 0.104073 0)
(-0.122445 0.1398 0)
(-0.150705 0.15471 0)
(-0.167695 0.156345 0)
(-0.172825 0.150205 0)
(-0.166595 0.14044 0)
(-0.148825 0.13039 0)
(-0.123055 0.124295 0)
(-0.090101 0.12609 0)
(-0.068595 0.147055 0)
(-0.061155 0.145915 0)
(-0.0410785 0.141195 0)
(-0.0309255 0.1266 0)
(-0.0172465 0.0967435 0)
(-0.0202355 0.0531725 0)
(-0.0114679 -0.021876 0)
(0.019076 -0.069124 0)
(0.0532795 -0.0823755 0)
(0.092013 -0.070562 0)
(0.128325 -0.050094 0)
(0.16064 -0.028732 0)
(0.186535 -0.00880245 0)
(0.205065 0.00994665 0)
(0.21574 0.0277545 0)
(0.218815 0.0444715 0)
(0.21427 0.0590845 0)
(0.201975 0.0701905 0)
(0.18179 0.07585 0)
(0.153625 0.0734445 0)
(0.11792 0.059415 0)
(0.0763645 0.029402 0)
(0.0330275 -0.0205548 0)
(-0.00031615 -0.0771985 0)
(-0.00308882 -0.0686435 0)
(-0.041935 0.0423515 0)
(-0.0849 0.107996 0)
(-0.122885 0.14231 0)
(-0.14983 0.15544 0)
(-0.164755 0.154965 0)
(-0.166995 0.14634 0)
(-0.15706 0.13354 0)
(-0.13446 0.120145 0)
(-0.103542 0.111065 0)
(-0.0632275 0.11478 0)
(-0.0424755 0.15339 0)
(-0.043925 0.150685 0)
(-0.02164 0.147775 0)
(-0.0152295 0.13843 0)
(-0.00073885 0.11797 0)
(-0.0167085 0.084428 0)
(-0.0181515 -0.013029 0)
(0.017548 -0.0759245 0)
(0.0543085 -0.0931305 0)
(0.0960535 -0.080683 0)
(0.134305 -0.0580775 0)
(0.168095 -0.034169 0)
(0.19483 -0.0116875 0)
(0.21376 0.0094143 0)
(0.224655 0.0292725 0)
(0.227835 0.0476845 0)
(0.22335 0.063594 0)
(0.21101 0.07565 0)
(0.190495 0.0820465 0)
(0.16156 0.08026 0)
(0.124495 0.0667675 0)
(0.080902 0.0371095 0)
(0.034979 -0.0132237 0)
(-0.00110083 -0.074021 0)
(-0.00311482 -0.0666145 0)
(-0.0431115 0.045691 0)
(-0.0862885 0.110404 0)
(-0.123915 0.142975 0)
(-0.14974 0.153815 0)
(-0.162915 0.150645 0)
(-0.162875 0.13889 0)
(-0.150205 0.12234 0)
(-0.124315 0.104559 0)
(-0.0900655 0.090566 0)
(-0.0440555 0.094792 0)
(-0.0215075 0.162635 0)
(-0.030897 0.15006 0)
(-0.00781695 0.147195 0)
(-0.0047262 0.14242 0)
(0.0103699 0.131885 0)
(-0.0131445 0.117625 0)
(-0.018594 -0.0104537 0)
(0.0242945 -0.089477 0)
(0.061795 -0.106815 0)
(0.104291 -0.0921765 0)
(0.142825 -0.0670425 0)
(0.176795 -0.0405575 0)
(0.20347 -0.0155835 0)
(0.22222 0.00775085 0)
(0.23301 0.0295385 0)
(0.23619 0.049546 0)
(0.231815 0.0667285 0)
(0.219545 0.0798395 0)
(0.198915 0.087179 0)
(0.169465 0.0862725 0)
(0.131295 0.073569 0)
(0.08583 0.0444695 0)
(0.0374565 -0.006081 0)
(-0.00177801 -0.0706115 0)
(-0.00325446 -0.064901 0)
(-0.044702 0.0481735 0)
(-0.0884005 0.111725 0)
(-0.125895 0.14219 0)
(-0.15084 0.150315 0)
(-0.162615 0.14404 0)
(-0.160905 0.128915 0)
(-0.14651 0.108545 0)
(-0.1192 0.0863675 0)
(-0.08388 0.0662965 0)
(-0.033299 0.0685625 0)
(0.00145585 0.18051 0)
(-0.0155295 0.150395 0)
(0.0004071 0.14509 0)
(-0.00133961 0.143945 0)
(0.00869695 0.144505 0)
(-0.0193905 0.15545 0)
(-0.00794095 -0.0116624 0)
(0.043792 -0.106275 0)
(0.076617 -0.118865 0)
(0.11677 -0.102395 0)
(0.15331 -0.075344 0)
(0.185935 -0.046963 0)
(0.21162 -0.020018 0)
(0.229715 0.00513015 0)
(0.24015 0.02855 0)
(0.243345 0.049937 0)
(0.2392 0.0683185 0)
(0.22726 0.0825695 0)
(0.206825 0.0910635 0)
(0.177195 0.0913365 0)
(0.138255 0.079743 0)
(0.091168 0.051503 0)
(0.040584 0.001045 0)
(-0.00225053 -0.067002 0)
(-0.00352866 -0.063097 0)
(-0.046848 0.0503005 0)
(-0.091444 0.112399 0)
(-0.129075 0.140365 0)
(-0.15332 0.145395 0)
(-0.16388 0.13581 0)
(-0.160815 0.11746 0)
(-0.14517 0.094046 0)
(-0.11755 0.0687835 0)
(-0.0804245 0.043872 0)
(-0.0392605 0.025455 0)
(0.0309635 -0.043323 0)
(0.0632905 -0.11475 0)
(0.094791 -0.12368 0)
(0.12991 -0.108025 0)
(0.163715 -0.081195 0)
(0.19405 -0.0524085 0)
(0.21823 -0.024534 0)
(0.23542 0.0017083 0)
(0.24544 0.0262615 0)
(0.248775 0.048694 0)
(0.245105 0.068152 0)
(0.2338 0.0836115 0)
(0.21394 0.0934915 0)
(0.18455 0.095283 0)
(0.145265 0.0852015 0)
(0.0968925 0.058215 0)
(0.0444915 0.00818205 0)
(-0.00232645 -0.06319 0)
(-0.00399985 -0.0607855 0)
(-0.049694 0.0525555 0)
(-0.095549 0.112825 0)
(-0.133515 0.13783 0)
(-0.157105 0.139345 0)
(-0.16638 0.126205 0)
(-0.161735 0.104618 0)
(-0.144355 0.078526 0)
(-0.114685 0.05082 0)
(-0.075568 0.022864 0)
(-0.0289045 -0.00760065 0)
(0.0283975 -0.05535 0)
(0.067922 -0.116645 0)
(0.1027 -0.125645 0)
(0.13746 -0.11105 0)
(0.17014 -0.085466 0)
(0.19891 -0.057216 0)
(0.221905 -0.0292845 0)
(0.238415 -0.00263118 0)
(0.248275 0.02254 0)
(0.251995 0.0456585 0)
(0.24909 0.0660515 0)
(0.238805 0.08278 0)
(0.219955 0.0942885 0)
(0.1913 0.0979875 0)
(0.152155 0.0898945 0)
(0.102935 0.06465 0)
(0.0492325 0.0154853 0)
(-0.0017248 -0.0591175 0)
(-0.00479482 -0.0575465 0)
(-0.0533855 0.055361 0)
(-0.100798 0.113364 0)
(-0.13925 0.13489 0)
(-0.162185 0.132435 0)
(-0.17011 0.11543 0)
(-0.16383 0.0904545 0)
(-0.144725 0.0615585 0)
(-0.113385 0.031261 0)
(-0.0722485 -0.00020155 0)
(-0.025252 -0.030659 0)
(0.0262635 -0.0766985 0)
(0.069124 -0.12461 0)
(0.10621 -0.129195 0)
(0.14098 -0.11407 0)
(0.17279 -0.089389 0)
(0.20029 -0.061975 0)
(0.22231 -0.03455 0)
(0.238365 -0.0080571 0)
(0.24833 0.017263 0)
(0.252665 0.04074 0)
(0.250825 0.06192 0)
(0.24191 0.0799615 0)
(0.22453 0.093324 0)
(0.19712 0.099318 0)
(0.15868 0.0937445 0)
(0.10912 0.0708115 0)
(0.0546555 0.0231117 0)
(-0.00010865 -0.054593 0)
(-0.00608547 -0.0529805 0)
(-0.05799 0.0590375 0)
(-0.10714 0.114288 0)
(-0.1461 0.131815 0)
(-0.168265 0.12499 0)
(-0.17468 0.103889 0)
(-0.166595 0.0755125 0)
(-0.145715 0.0440355 0)
(-0.112765 0.0116723 0)
(-0.070507 -0.021668 0)
(-0.0238915 -0.0505315 0)
(0.0228495 -0.091327 0)
(0.0663385 -0.13166 0)
(0.10493 -0.13267 0)
(0.14 -0.116895 0)
(0.171295 -0.093089 0)
(0.197935 -0.0667815 0)
(0.219295 -0.040331 0)
(0.23515 -0.01451 0)
(0.245425 0.0105059 0)
(0.25055 0.0340305 0)
(0.25 0.0558235 0)
(0.242775 0.0751705 0)
(0.22729 0.0905535 0)
(0.201675 0.099183 0)
(0.16454 0.096598 0)
(0.115265 0.0765125 0)
(0.0603775 0.030704 0)
(0.00262615 -0.049655 0)
(-0.0080411 -0.0467995 0)
(-0.0634255 0.0637815 0)
(-0.114345 0.115799 0)
(-0.153695 0.128885 0)
(-0.1749 0.117365 0)
(-0.179575 0.0920055 0)
(-0.169465 0.0602605 0)
(-0.146575 0.026398 0)
(-0.111775 -0.0078305 0)
(-0.0684385 -0.0409345 0)
(-0.0222515 -0.066688 0)
(0.0186885 -0.1025 0)
(0.061228 -0.13785 0)
(0.100204 -0.13625 0)
(0.1355 -0.11978 0)
(0.1664 -0.096745 0)
(0.19241 -0.0716325 0)
(0.21325 -0.0464545 0)
(0.22901 -0.0217125 0)
(0.239565 0.0025816 0)
(0.24554 0.0258855 0)
(0.24639 0.0480735 0)
(0.241065 0.0686355 0)
(0.227845 0.0860885 0)
(0.204545 0.097558 0)
(0.169355 0.0983245 0)
(0.121055 0.081564 0)
(0.066078 0.038169 0)
(0.0065519 -0.0430725 0)
(-0.0106028 -0.0390865 0)
(-0.0693605 0.0696005 0)
(-0.121945 0.118005 0)
(-0.16142 0.12633 0)
(-0.18135 0.109917 0)
(-0.184005 0.0802015 0)
(-0.171605 0.0449935 0)
(-0.14621 0.0086476 0)
(-0.10888 -0.02669 0)
(-0.0633025 -0.0590655 0)
(-0.0161995 -0.080088 0)
(0.0107773 -0.10931 0)
(0.053066 -0.14318 0)
(0.092168 -0.140175 0)
(0.128025 -0.12304 0)
(0.15877 -0.100475 0)
(0.18436 -0.0763475 0)
(0.20468 -0.0524625 0)
(0.220265 -0.029014 0)
(0.23087 -0.00582825 0)
(0.23764 0.016984 0)
(0.23983 0.03931 0)
(0.23649 0.0608855 0)
(0.225765 0.0802975 0)
(0.205205 0.094608 0)
(0.172575 0.098884 0)
(0.12598 0.085815 0)
(0.071312 0.0453505 0)
(0.0109996 -0.035315 0)
(-0.0134602 -0.0305654 0)
(-0.0752855 0.0762645 0)
(-0.12932 0.120925 0)
(-0.1685 0.124455 0)
(-0.18683 0.10328 0)
(-0.187295 0.069422 0)
(-0.17263 0.030929 0)
(-0.14464 -0.00790405 0)
(-0.103725 -0.043804 0)
(-0.05174 -0.07414 0)
(0.00152256 -0.079739 0)
(-0.00668635 -0.10281 0)
(0.040419 -0.145775 0)
(0.0825425 -0.14331 0)
(0.11957 -0.125925 0)
(0.150035 -0.10374 0)
(0.175025 -0.0802015 0)
(0.1945 -0.0573225 0)
(0.20936 -0.035152 0)
(0.220045 -0.0134125 0)
(0.2271 0.00844875 0)
(0.230335 0.0305795 0)
(0.228815 0.0528095 0)
(0.220635 0.073847 0)
(0.20311 0.090718 0)
(0.17358 0.098364 0)
(0.129415 0.089105 0)
(0.0755015 0.051961 0)
(0.01509 -0.027488 0)
(-0.016214 -0.021494 0)
(-0.0805695 0.083444 0)
(-0.135635 0.124425 0)
(-0.173905 0.123455 0)
(-0.19013 0.0979575 0)
(-0.188095 0.060233 0)
(-0.17077 0.0181115 0)
(-0.1389 -0.024764 0)
(-0.089807 -0.0673635 0)
(-0.0269595 -0.1018 0)
(0.0229245 -0.070802 0)
(-0.024956 -0.0895435 0)
(0.016358 -0.16176 0)
(0.067784 -0.15418 0)
(0.11009 -0.131235 0)
(0.140745 -0.107185 0)
(0.165245 -0.0830615 0)
(0.183645 -0.0603365 0)
(0.19748 -0.0390795 0)
(0.207645 -0.018634 0)
(0.214245 0.0019575 0)
(0.21799 0.0233795 0)
(0.21792 0.045664 0)
(0.212125 0.0676795 0)
(0.19775 0.0864455 0)
(0.171775 0.09687 0)
(0.13078 0.0911445 0)
(0.0781875 0.057527 0)
(0.018151 -0.0198917 0)
(-0.018115 -0.0111992 0)
(-0.084634 0.0909215 0)
(-0.14014 0.128345 0)
(-0.176875 0.12361 0)
(-0.19071 0.094924 0)
(-0.18647 0.054497 0)
(-0.167875 0.0088988 0)
(-0.133285 -0.039631 0)
(-0.080369 -0.087917 0)
(-0.0168705 -0.103035 0)
(-0.019533 -0.0322665 0)
(-0.00865025 0.112765 0)
(0.011107 0.127785 0)
(0.00495795 0.127205 0)
(0.001248 0.1273 0)
(-0.00457482 0.127795 0)
(0.016604 0.110805 0)
(0.027342 -0.0494175 0)
(0.014164 -0.15126 0)
(0.0646235 -0.16503 0)
(0.10663 -0.13715 0)
(0.13521 -0.1093 0)
(0.156975 -0.0836935 0)
(0.173105 -0.060227 0)
(0.18493 -0.039074 0)
(0.193605 -0.019416 0)
(0.199455 -0.00031025 0)
(0.20292 0.019623 0)
(0.20379 0.0409995 0)
(0.200045 0.062964 0)
(0.188745 0.082497 0)
(0.166635 0.0946 0)
(0.12952 0.09166 0)
(0.079109 0.061642 0)
(0.019598 -0.0120804 0)
(-0.0186255 -0.00236 0)
(-0.0871545 0.0979245 0)
(-0.142175 0.132185 0)
(-0.176625 0.12486 0)
(-0.187485 0.0946905 0)
(-0.18083 0.053244 0)
(-0.16038 0.0040344 0)
(-0.12204 -0.05263 0)
(-0.061647 -0.108925 0)
(0.00844595 -0.12537 0)
(0.04488 -0.0806605 0)
(0.059451 0.0124685 0)
(0.042749 0.00302835 0)
(0.0207555 -0.00583065 0)
(-0.0109681 -0.0059337 0)
(-0.030476 0.00283565 0)
(-0.0449645 0.012043 0)
(-0.030673 -0.0918365 0)
(-0.00100481 -0.16083 0)
(0.0566015 -0.17597 0)
(0.103289 -0.14306 0)
(0.130395 -0.10936 0)
(0.14891 -0.080984 0)
(0.16195 -0.0558415 0)
(0.171005 -0.0338385 0)
(0.177415 -0.014334 0)
(0.18232 0.00362165 0)
(0.18521 0.021288 0)
(0.18666 0.0403705 0)
(0.184595 0.060876 0)
(0.17612 0.0796165 0)
(0.157995 0.09179 0)
(0.12536 0.0903405 0)
(0.078225 0.063499 0)
(0.0194085 -0.00662315 0)
(-0.0187915 0.00615825 0)
(-0.08825 0.103722 0)
(-0.14195 0.13528 0)
(-0.17375 0.12696 0)
(-0.181745 0.097603 0)
(-0.17346 0.057795 0)
(-0.15303 0.00711825 0)
(-0.11703 -0.057313 0)
(-0.0594255 -0.12257 0)
(0.0137925 -0.14821 0)
(0.0665075 -0.11482 0)
(0.0782245 -0.064722 0)
(0.032142 -0.072631 0)
(0.025257 -0.0757125 0)
(-0.016242 -0.078116 0)
(-0.018442 -0.0776015 0)
(-0.0622695 -0.0687975 0)
(-0.048865 -0.12737 0)
(0.00264935 -0.17926 0)
(0.0645235 -0.184585 0)
(0.107316 -0.145495 0)
(0.128455 -0.105445 0)
(0.141505 -0.0735105 0)
(0.14981 -0.045912 0)
(0.155 -0.0221455 0)
(0.158535 -0.0020285 0)
(0.162335 0.0145 0)
(0.165775 0.02892 0)
(0.16757 0.044558 0)
(0.166835 0.0621415 0)
(0.160725 0.078337 0)
(0.1464 0.0886385 0)
(0.11859 0.086938 0)
(0.075718 0.062538 0)
(0.018865 -0.00274365 0)
(-0.018874 0.014335 0)
(-0.088019 0.107331 0)
(-0.14002 0.13685 0)
(-0.169375 0.129425 0)
(-0.175135 0.103369 0)
(-0.165425 0.06812 0)
(-0.14432 0.0198225 0)
(-0.11203 -0.0502485 0)
(-0.0608495 -0.125275 0)
(0.0110063 -0.15971 0)
(0.0756355 -0.132465 0)
(0.0890705 -0.0783475 0)
(0.0256655 -0.067816 0)
(0.0270435 -0.0675825 0)
(-0.0200715 -0.073371 0)
(-0.012944 -0.0796245 0)
(-0.0725225 -0.088951 0)
(-0.053069 -0.15152 0)
(0.0151985 -0.1916 0)
(0.0763865 -0.18652 0)
(0.112215 -0.140675 0)
(0.125795 -0.0953315 0)
(0.132875 -0.059924 0)
(0.13631 -0.029612 0)
(0.13811 -0.00391185 0)
(0.14031 0.015985 0)
(0.14421 0.0298495 0)
(0.14813 0.041006 0)
(0.149795 0.053053 0)
(0.149525 0.0667395 0)
(0.14486 0.0788385 0)
(0.133535 0.085301 0)
(0.11021 0.0813025 0)
(0.07205 0.058077 0)
(0.0183575 -0.0009072 0)
(-0.0188595 0.0219305 0)
(-0.086903 0.107819 0)
(-0.137725 0.136135 0)
(-0.16605 0.13165 0)
(-0.171525 0.110965 0)
(-0.16155 0.082169 0)
(-0.139735 0.040731 0)
(-0.114195 -0.0289855 0)
(-0.0772245 -0.11024 0)
(-0.0224085 -0.153135 0)
(0.0408165 -0.13359 0)
(0.061791 -0.0771155 0)
(0.00544285 -0.046778 0)
(0.018955 -0.0461965 0)
(-0.0136265 -0.05456 0)
(0.007476 -0.0656085 0)
(-0.0413765 -0.099896 0)
(-0.0081622 -0.163935 0)
(0.057901 -0.19245 0)
(0.101005 -0.17566 0)
(0.12188 -0.125265 0)
(0.124585 -0.077576 0)
(0.12587 -0.0405155 0)
(0.12623 -0.0091187 0)
(0.12829 0.016304 0)
(0.132185 0.03416 0)
(0.136145 0.0465965 0)
(0.138735 0.0556155 0)
(0.13876 0.0645655 0)
(0.137315 0.0740165 0)
(0.13254 0.080987 0)
(0.12255 0.081993 0)
(0.102234 0.0736715 0)
(0.0680345 0.0499975 0)
(0.017881 -0.0015109 0)
(-0.018586 0.0283065 0)
(-0.0853175 0.104173 0)
(-0.136255 0.132075 0)
(-0.16568 0.132345 0)
(-0.172855 0.117995 0)
(-0.16252 0.09514 0)
(-0.137095 0.062055 0)
(-0.110485 0.00180815 0)
(-0.0829915 -0.079124 0)
(-0.045238 -0.129795 0)
(0.00621605 -0.12708 0)
(0.035533 -0.100274 0)
(0.00031375 -0.0731835 0)
(0.0108235 -0.074459 0)
(-0.0100096 -0.0866325 0)
(0.0170555 -0.10296 0)
(-0.00135779 -0.13903 0)
(0.0404585 -0.16842 0)
(0.092116 -0.178365 0)
(0.11931 -0.150185 0)
(0.12638 -0.0990965 0)
(0.123005 -0.053779 0)
(0.123195 -0.0189795 0)
(0.126235 0.010206 0)
(0.13247 0.033007 0)
(0.138395 0.050541 0)
(0.142135 0.063138 0)
(0.14227 0.071196 0)
(0.139325 0.0775885 0)
(0.13519 0.0828145 0)
(0.128625 0.0842175 0)
(0.11774 0.0788875 0)
(0.097809 0.0648035 0)
(0.065209 0.039073 0)
(0.017509 -0.0041744 0)
(-0.0179245 0.032137 0)
(-0.083561 0.094361 0)
(-0.13623 0.12196 0)
(-0.16878 0.12764 0)
(-0.17864 0.11901 0)
(-0.16706 0.100284 0)
(-0.138795 0.0727565 0)
(-0.10756 0.027721 0)
(-0.085374 -0.0426015 0)
(-0.0648145 -0.0978925 0)
(-0.031895 -0.10736 0)
(-0.0120255 -0.091607 0)
(-0.0152245 -0.0676435 0)
(0.00946735 -0.0709945 0)
(0.0196235 -0.093512 0)
(0.0590245 -0.119285 0)
(0.07021 -0.149265 0)
(0.0980645 -0.16078 0)
(0.127815 -0.15231 0)
(0.13474 -0.115585 0)
(0.13024 -0.0683865 0)
(0.126005 -0.0308265 0)
(0.12956 -0.0017633 0)
(0.137285 0.023371 0)
(0.14656 0.0448665 0)
(0.1542 0.0627565 0)
(0.15837 0.0762785 0)
(0.157465 0.0843395 0)
(0.15207 0.0888675 0)
(0.14522 0.0902405 0)
(0.1362 0.0864085 0)
(0.1228 0.075086 0)
(0.1003 0.055238 0)
(0.065466 0.026857 0)
(0.0172345 -0.0079487 0)
(-0.0177925 0.031346 0)
(-0.081659 0.0761685 0)
(-0.136535 0.102444 0)
(-0.172045 0.112764 0)
(-0.182255 0.107631 0)
(-0.166625 0.0908805 0)
(-0.13524 0.0682865 0)
(-0.0996565 0.0387735 0)
(-0.0751235 -0.00695892 0)
(-0.0644025 -0.052674 0)
(-0.0456965 -0.062196 0)
(-0.0291085 -0.0478925 0)
(-0.00783335 -0.0199925 0)
(0.037784 -0.028388 0)
(0.0727695 -0.0591355 0)
(0.111055 -0.089802 0)
(0.126915 -0.11904 0)
(0.13851 -0.12258 0)
(0.145225 -0.108175 0)
(0.13695 -0.074078 0)
(0.12884 -0.0397145 0)
(0.12858 -0.0130393 0)
(0.135665 0.0100297 0)
(0.14591 0.0313215 0)
(0.1576 0.0504305 0)
(0.16836 0.0669085 0)
(0.17588 0.0799305 0)
(0.17713 0.0882925 0)
(0.171955 0.091241 0)
(0.164005 0.089363 0)
(0.15323 0.0816535 0)
(0.137065 0.0666235 0)
(0.11053 0.0440295 0)
(0.070814 0.015787 0)
(0.0180905 -0.0102284 0)
(-0.015988 0.0003555 0)
(-0.075965 0.0322225 0)
(-0.130965 0.0549775 0)
(-0.16669 0.062919 0)
(-0.17293 0.058923 0)
(-0.15293 0.050772 0)
(-0.120315 0.040354 0)
(-0.0854295 0.028325 0)
(-0.057234 0.0105024 0)
(-0.04724 -0.0135375 0)
(-0.0337445 -0.0209425 0)
(-0.0137792 -0.0152255 0)
(0.027707 -0.00314993 0)
(0.0820915 -0.0167525 0)
(0.12216 -0.0394585 0)
(0.150695 -0.0588945 0)
(0.15697 -0.0742265 0)
(0.15046 -0.071651 0)
(0.137745 -0.0585445 0)
(0.120685 -0.036895 0)
(0.1127 -0.018018 0)
(0.11363 -0.0016723 0)
(0.120245 0.0133296 0)
(0.13169 0.0274515 0)
(0.14689 0.040709 0)
(0.16334 0.053013 0)
(0.17788 0.0638015 0)
(0.186735 0.071876 0)
(0.18614 0.0756225 0)
(0.180465 0.072714 0)
(0.17003 0.063452 0)
(0.152385 0.0473545 0)
(0.12229 0.024828 0)
(0.077023 0.00068505 0)
(0.019961 -0.013434 0)
(-0.0093982 -0.011246 0)
(-0.0527125 -0.0142115 0)
(-0.0956235 -0.00657689 0)
(-0.11869 0.0031295 0)
(-0.116875 0.0108667 0)
(-0.095459 0.014168 0)
(-0.0647675 0.0143185 0)
(-0.034687 0.0126685 0)
(-0.0078297 0.00947795 0)
(0.0055504 0.00506335 0)
(0.0169291 0.0031071 0)
(0.0325925 0.00135067 0)
(0.0601965 0.0031298 0)
(0.0901785 -0.00143172 0)
(0.108855 -0.00767465 0)
(0.11654 -0.012999 0)
(0.108169 -0.0179015 0)
(0.089081 -0.0162335 0)
(0.068082 -0.0130235 0)
(0.048521 -0.0076591 0)
(0.038606 -0.00211612 0)
(0.0357595 0.00335065 0)
(0.04266 0.00803385 0)
(0.057343 0.0121035 0)
(0.0786185 0.015828 0)
(0.10395 0.0193785 0)
(0.12972 0.0225235 0)
(0.151245 0.024621 0)
(0.163965 0.0247645 0)
(0.16537 0.022341 0)
(0.155175 0.0165123 0)
(0.13433 0.00722841 0)
(0.101834 -0.0044625 0)
(0.0592795 -0.0137386 0)
(0.013843 -0.0124688 0)
)
;

boundaryField
{
    floor
    {
        type            empty;
    }
    ceiling
    {
        type            empty;
    }
    fixedWalls
    {
        type            fixedValue;
        value           uniform (0 0 0);
    }
    rack2796428BA49E0232CAC645AEBC8DA5C1_fixedWall
    {
        type            fixedValue;