/*--------------------------------*- C++ -*----------------------------------*\
| =========                 |                                                 |
| \\      /  F ield         | OpenFOAM: The Open Source CFD Toolbox           |
|  \\    /   O peration     | Version:  2.3.1                                 |
|   \\  /    A nd           | Web:      www.OpenFOAM.org                      |
|    \\/     M anipulation  |                                                 |
\*---------------------------------------------------------------------------*/
FoamFile
{
    version     2.0;
    format      ascii;
    class       volScalarField;
    location    "600";
    object      alphat;
}
// * * * * * * * * * * * * * * * * * * * * * * * * * * * * * * * * * * * * * //

dimensions      [0 2 -1 0 0 0 0];

internalField   nonuniform List<scalar> 
47964
(
0.00451797
0.00341425
0.00442881
0.00543781
0.00618999
0.00660068
0.00668851
0.00653106
0.00623304
0.00587974
0.00552083
0.00518469
0.00488425
0.00462996
0.00442634
0.00428013
0.00420182
0.00420565
0.00428954
0.00444239
0.00465411
0.00491858
0.00523132
0.00558292
0.00596185
0.00634198
0.00667779
0.0068901
0.00687836
0.00656339
0.00591293
0.00496188
0.00385524
0.00292817
0.00400023
0.00342618
0.00208088
0.00261113
0.00298943
0.00320122
0.003254
0.00318292
0.00303491
0.00285984
0.00269135
0.00253864
0.00240545
0.00229154
0.0021988
0.00212644
0.00207568
0.0020489
0.00205099
0.00208059
0.00213464
0.00221091
0.00230847
0.00242794
0.0025677
0.00272829
0.0029065
0.00309468
0.00326379
0.00336582
0.00335612
0.0032004
0.00288486
0.00243624
0.00186923
0.00304182
0.00406501
0.00243351
0.00291231
0.00318706
0.00327685
0.00320996
0.00304323
0.00283041
0.00262605
0.00246388
0.00233473
0.00222882
0.00214143
0.0020712
0.00201656
0.00197799
0.00195757
0.00195989
0.00198352
0.00202569
0.00208445
0.00215959
0.00225237
0.00236382
0.0024987
0.00266647
0.00287733
0.00310847
0.00330125
0.0034099
0.00338046
0.00318166
0.00280916
0.00226839
0.00367808
0.00452129
0.00261652
0.00303318
0.00320584
0.00316643
0.00295304
0.00268714
0.00245348
0.00228479
0.00216392
0.00207014
0.00199357
0.00192982
0.00187864
0.00183868
0.00181106
0.00179824
0.0018007
0.00181733
0.00184917
0.00189383
0.00195045
0.00202005
0.00210256
0.00220259
0.00232877
0.00250196
0.00274076
0.00301753
0.00327003
0.00337047
0.00328158
0.00298432
0.00247638
0.00415476
0.00496006
0.00276062
0.00309275
0.00316082
0.00300812
0.00275376
0.00250766
0.00230686
0.00217988
0.0020878
0.00200813
0.00193787
0.00187472
0.0018217
0.00177807
0.00174678
0.00173229
0.00173518
0.00175444
0.00179095
0.00184036
0.00190004
0.00197071
0.00204992
0.00213975
0.00224127
0.00237331
0.00257704
0.0028268
0.00309057
0.00329266
0.00330264
0.00308804
0.00263983
0.00460236
0.00545795
0.00296405
0.0032703
0.00332175
0.00315995
0.00291869
0.00269184
0.00250981
0.0023949
0.00230293
0.00222022
0.0021493
0.00208832
0.00203936
0.00200123
0.00197543
0.00196425
0.0019662
0.00198079
0.00201061
0.00205359
0.00210859
0.00217685
0.00225691
0.00235077
0.00245539
0.00258126
0.00276848
0.00299796
0.00324329
0.00344697
0.00346311
0.00326224
0.00283514
0.00507605
0.00598486
0.00319116
0.00348869
0.00354148
0.00338783
0.00314813
0.00292317
0.00274358
0.00263067
0.00253947
0.00245917
0.00239225
0.00233674
0.00229362
0.00226127
0.00223967
0.00222965
0.00223057
0.0022422
0.00226576
0.0023007
0.00234749
0.00240802
0.00248196
0.00257154
0.0026743
0.00279925
0.00298612
0.00321526
0.00345866
0.00364919
0.0036574
0.00345573
0.00303844
0.00555353
0.00651496
0.0034251
0.00372322
0.00378709
0.00364888
0.00340589
0.00317688
0.00299565
0.0028864
0.00279983
0.00272646
0.00266701
0.00261926
0.00258292
0.00255626
0.00253844
0.0025297
0.00252977
0.00253857
0.00255648
0.00258354
0.002621
0.00267101
0.00273457
0.00281435
0.00290993
0.00302977
0.00321778
0.00345052
0.00369613
0.00386846
0.00386042
0.00364986
0.00323648
0.0060139
0.00702809
0.00365662
0.00396309
0.0040469
0.00393235
0.00368593
0.00345071
0.00326711
0.00316557
0.00308784
0.00302454
0.00297421
0.00293456
0.00290447
0.0028825
0.00286759
0.00285973
0.002859
0.00286545
0.00287868
0.00289888
0.00292755
0.00296656
0.00301782
0.00308415
0.00316749
0.00327661
0.00346456
0.00370122
0.00394821
0.00409513
0.00406244
0.00383588
0.0034216
0.00644032
0.00750259
0.00387566
0.00419653
0.00430785
0.00422562
0.00398347
0.0037424
0.00355681
0.00346717
0.00340264
0.00335224
0.00331249
0.00328139
0.00325743
0.00323974
0.00322737
0.00322018
0.00321867
0.00322297
0.00323185
0.00324553
0.00326542
0.00329282
0.00333015
0.00337991
0.00344615
0.00353942
0.00372572
0.00396465
0.00420807
0.004319
0.00425281
0.0040045
0.0035861
0.00681588
0.00791647
0.00407213
0.00441186
0.0045565
0.0045134
0.00430094
0.00405956
0.00387351
0.0037978
0.00375061
0.00371592
0.0036882
0.00366624
0.00364851
0.00363499
0.00362505
0.00361847
0.00361621
0.00361846
0.00362307
0.00363019
0.00364099
0.00365595
0.00367765
0.00370781
0.0037526
0.00382784
0.00401056
0.00424565
0.00446365
0.00452824
0.00442059
0.00414669
0.00372256
0.0071243
0.00824824
0.00423515
0.00459625
0.00477996
0.004791
0.00464015
0.0044178
0.00424476
0.00418076
0.00415044
0.00413147
0.00411584
0.00410272
0.00409085
0.00408109
0.00407331
0.00406719
0.0040642
0.00406457
0.00406505
0.00406574
0.00406751
0.00407
0.00407586
0.00408656
0.00411085
0.0041708
0.00433628
0.00454781
0.00470262
0.0047072
0.00455199
0.00425228
0.00382347
0.00735081
0.008481
0.00435541
0.00473736
0.00496118
0.00503527
0.00496502
0.0047908
0.00464415
0.00459607
0.00458564
0.00458495
0.00458356
0.0045806
0.00457539
0.0045698
0.00456415
0.00455822
0.00455435
0.00455261
0.00454855
0.00454213
0.0045337
0.00452209
0.00450981
0.00449864
0.00449972
0.00454029
0.00467541
0.0048381
0.0049051
0.00483906
0.00463477
0.00431338
0.00388328
0.00748497
0.00860601
0.00442696
0.00482623
0.00508465
0.00521964
0.00522951
0.00514229
0.00503688
0.00501157
0.00502441
0.005044
0.00505857
0.00506717
0.00506985
0.00506921
0.00506619
0.00506068
0.00505569
0.00505101
0.00504132
0.00502643
0.00500611
0.00497875
0.00494643
0.00491144
0.00488605
0.00490044
0.00499029
0.00506147
0.00504211
0.0049075
0.00466024
0.00432584
0.00389929
0.0075227
0.00862373
0.00444797
0.00485914
0.0051418
0.00532806
0.00541118
0.00541068
0.00537551
0.00537926
0.00541625
0.00545524
0.00548109
0.00549815
0.00550812
0.00551226
0.00551197
0.00550687
0.00549936
0.00548911
0.0054719
0.00544782
0.00541622
0.00537684
0.00532989
0.00527342
0.0052207
0.00520229
0.00521532
0.00519528
0.00509691
0.00490386
0.00462571
0.0042899
0.00387188
0.00746672
0.00854288
0.00442062
0.00483796
0.00513211
0.00535496
0.00549656
0.00556629
0.0055976
0.00563626
0.00569013
0.0057392
0.00577701
0.00580357
0.00582136
0.00583074
0.00583337
0.00582858
0.00581823
0.00580174
0.00577615
0.00574189
0.00569799
0.00564513
0.00558224
0.00551088
0.00543629
0.00537722
0.00532063
0.00522612
0.00506417
0.00482842
0.00453476
0.00420981
0.00380399
0.00732595
0.00837802
0.00435021
0.00476895
0.00506213
0.00530532
0.0054877
0.00560931
0.00569014
0.00575897
0.00582935
0.00588948
0.00593814
0.00597347
0.00599832
0.0060124
0.00601748
0.00601252
0.00599902
0.00597593
0.00594174
0.00589716
0.00584115
0.00577502
0.00569685
0.00560952
0.00551306
0.00541788
0.00530738
0.00515695
0.00494992
0.00468925
0.00439592
0.00409257
0.00370034
0.007114
0.00814674
0.00424381
0.00466103
0.00494305
0.00519163
0.00539781
0.00555403
0.00566966
0.00576222
0.0058465
0.00591639
0.00597369
0.00601606
0.00604633
0.00606389
0.0060704
0.00606451
0.0060473
0.00601781
0.00597505
0.00592061
0.0058534
0.00577513
0.00568337
0.00558115
0.00546525
0.0053405
0.00519067
0.0050021
0.00476815
0.00449957
0.00422057
0.00394629
0.00356497
0.00685065
0.00786719
0.00410896
0.00452384
0.00478792
0.00503005
0.00524588
0.0054223
0.00556054
0.00567025
0.005765
0.00584246
0.00590588
0.00595314
0.00598688
0.00600632
0.00601288
0.00600501
0.00598342
0.00594757
0.00589665
0.00583287
0.00575562
0.00566674
0.00556347
0.00544843
0.0053166
0.00516938
0.00499301
0.00478175
0.00453673
0.00427458
0.00402064
0.00377829
0.0034038
0.006551
0.00755976
0.003951
0.00436616
0.00460931
0.00483689
0.00505194
0.00523783
0.00538955
0.0055109
0.00561307
0.00569596
0.00576335
0.00581356
0.00584893
0.00586865
0.00587379
0.00586267
0.00583582
0.00579313
0.0057346
0.00566231
0.00557552
0.00547736
0.00536444
0.00523875
0.00509448
0.0049313
0.00473878
0.00451724
0.00427373
0.00402892
0.00380658
0.0035895
0.00323023
0.00622519
0.00723523
0.00377597
0.00419484
0.00441771
0.00462634
0.00483391
0.00502217
0.00518136
0.00531066
0.00541831
0.00550534
0.00557539
0.00562729
0.00566296
0.00568161
0.0056839
0.00566821
0.005635
0.00558468
0.00551806
0.00543745
0.00534269
0.00523579
0.00511379
0.00497911
0.0048252
0.00465123
0.0044504
0.00422787
0.00399509
0.00377489
0.00358348
0.00339128
0.00304693
0.0058845
0.00689934
0.0035959
0.00400932
0.00422049
0.00440918
0.00460582
0.00479252
0.00495601
0.00509154
0.00520422
0.00529528
0.00536784
0.00542105
0.00545638
0.00547306
0.0054713
0.00544968
0.00540881
0.00534972
0.00527404
0.00518439
0.0050812
0.00496631
0.00483708
0.00469365
0.00453091
0.0043498
0.0041462
0.00392924
0.00371286
0.0035192
0.00336227
0.00318711
0.0028568
0.00552883
0.006558
0.00341211
0.00381712
0.00401974
0.00419246
0.00437726
0.00456093
0.00472779
0.00486965
0.00498839
0.00508464
0.00516074
0.00521585
0.00525097
0.00526528
0.00525852
0.00522967
0.00517965
0.00511032
0.00502412
0.00492411
0.00481131
0.00468739
0.00455016
0.0043992
0.00423008
0.00404356
0.00383959
0.00363163
0.00343716
0.00327569
0.00314495
0.00297844
0.00266201
0.00515759
0.00620507
0.00322506
0.00362071
0.0038198
0.00397732
0.00415363
0.00433446
0.00450536
0.00465504
0.0047821
0.00488584
0.00496761
0.00502607
0.00506177
0.0050738
0.00506142
0.00502415
0.00496335
0.00488203
0.00478348
0.00467132
0.00454718
0.00441263
0.00426605
0.00410672
0.00393142
0.00374175
0.00354196
0.00334828
0.00317852
0.00304493
0.00293077
0.0027665
0.00246384
0.00477167
0.00583407
0.00303401
0.00341946
0.00362127
0.0037701
0.00393515
0.00411402
0.00429146
0.00445226
0.00459081
0.00470516
0.00479558
0.00485953
0.00489715
0.0049075
0.00488924
0.00484253
0.0047693
0.00467411
0.00456114
0.00443481
0.0042973
0.00415029
0.00399278
0.0038242
0.00364302
0.00345248
0.00326063
0.00308442
0.00293851
0.00282556
0.00271861
0.00255222
0.00226304
0.00437283
0.00544005
0.00283702
0.0032119
0.00342128
0.00356878
0.00372621
0.00390301
0.00408666
0.00425965
0.00441295
0.00454151
0.00464535
0.00471778
0.00475897
0.00476881
0.00474494
0.00468818
0.00460104
0.00449023
0.00436084
0.00421834
0.00406553
0.00390439
0.00373463
0.00355639
0.00337017
0.0031813
0.00300033
0.00284239
0.0027162
0.00261516
0.00250741
0.00233642
0.00206102
0.00396326
0.00501853
0.00263147
0.00299601
0.00321632
0.00336954
0.00352424
0.00369973
0.00388919
0.00407509
0.00424553
0.00439142
0.00451108
0.00459627
0.00464311
0.00465449
0.00462615
0.00455952
0.00445746
0.00432971
0.00418231
0.00402208
0.0038525
0.00367612
0.00349362
0.00330626
0.00311674
0.00293222
0.00276371
0.00262216
0.00250917
0.00241131
0.00229679
0.00212098
0.00186272
0.00354491
0.00456545
0.0024146
0.00276935
0.00300262
0.0031677
0.00332524
0.00350102
0.00369535
0.00389328
0.0040814
0.00424605
0.00438394
0.00448238
0.00453767
0.00455409
0.00452427
0.00444974
0.00433315
0.00418837
0.00402244
0.00384385
0.00365703
0.00346539
0.00327088
0.00307622
0.00288599
0.00270809
0.00255172
0.00242219
0.00231474
0.00221261
0.00208788
0.00190886
0.00167116
0.00312062
0.00407906
0.00218757
0.00253039
0.00277679
0.00295834
0.00312432
0.00330279
0.00350075
0.00370803
0.00391166
0.00409377
0.00424964
0.00435918
0.00442361
0.00445172
0.00442702
0.00434953
0.00422072
0.00406049
0.00387702
0.00368085
0.00347776
0.00327232
0.00306802
0.00286899
0.00268086
0.00251066
0.00236396
0.0022405
0.00213147
0.00202029
0.00188531
0.0017075
0.00149014
0.00270528
0.00356501
0.00195529
0.00228051
0.00253741
0.00273762
0.00291662
0.00310059
0.00330078
0.00351271
0.00372534
0.00391807
0.00408487
0.00419699
0.00426328
0.00431654
0.00431131
0.00424291
0.00410964
0.00393919
0.00374203
0.00353111
0.00331459
0.00309845
0.00288788
0.00268787
0.00250388
0.00234056
0.00219937
0.0020761
0.00196078
0.00183971
0.00169878
0.00153063
0.00132776
0.00234255
0.00306028
0.00172855
0.00202645
0.00228733
0.00250462
0.00269887
0.00289071
0.00309181
0.00330253
0.00351377
0.00370434
0.003867
0.00395811
0.0040016
0.00411214
0.00415597
0.00411768
0.00399245
0.00382021
0.00361591
0.00339513
0.00316984
0.0029474
0.00273459
0.00253636
0.00235689
0.00219799
0.00205805
0.0019314
0.00180948
0.00168314
0.00154559
0.00138973
0.00120062
0.00213374
0.00271658
0.0015368
0.00179503
0.00204159
0.00226619
0.00247259
0.00267241
0.00287308
0.00307694
0.00327332
0.00344155
0.00356811
0.00358907
0.00357258
0.00378288
0.00393258
0.00396337
0.00386871
0.00370627
0.00350332
0.00327852
0.00304969
0.0028253
0.00261336
0.00241801
0.00224187
0.00208473
0.00194383
0.0018142
0.0016901
0.00156632
0.00143585
0.00128761
0.00111069
0.00200776
0.00254673
0.00140845
0.00162361
0.00183047
0.00204256
0.00224911
0.00245109
0.00264744
0.00283807
0.00300467
0.00312603
0.00317225
0.00301828
0.00287484
0.00326191
0.00362321
0.0037737
0.003739
0.00360199
0.00341068
0.00318891
0.00296173
0.00273883
0.0025292
0.00233622
0.00216163
0.00200461
0.00186287
0.00173287
0.00161054
0.00148931
0.00136081
0.00121696
0.00105542
0.0019632
0.00247537
0.00133484
0.00152268
0.0016946
0.00187156
0.00205796
0.00224816
0.00243327
0.00260904
0.0027505
0.00283114
0.00282053
0.00278252
0.00294918
0.00305968
0.00341857
0.00364652
0.00365353
0.00353692
0.00335592
0.00313837
0.00291347
0.00269183
0.00248289
0.00228978
0.00211418
0.00195541
0.00181148
0.00167964
0.00155504
0.00143139
0.00130217
0.00116348
0.00102879
0.00197207
0.00249044
0.00130434
0.00146325
0.00162135
0.00177124
0.00192871
0.00209429
0.00225863
0.00241806
0.00255167
0.00266687
0.00275517
0.00286386
0.00305861
0.00324632
0.00350848
0.00366906
0.00365753
0.0035329
0.00334655
0.00312468
0.00289528
0.00266891
0.00245477
0.00225612
0.0020744
0.00191031
0.00176237
0.00162646
0.00149727
0.00137099
0.00124231
0.00111372
0.00100785
0.00198302
0.00251235
0.00127703
0.00140823
0.00155421
0.00169798
0.00183886
0.00199427
0.00215809
0.00232737
0.00248111
0.00261701
0.0027222
0.00284028
0.00300379
0.00321382
0.00348815
0.00363942
0.00362755
0.00350314
0.00331584
0.00309203
0.00285835
0.00262593
0.00240333
0.00219706
0.0020094
0.00183929
0.00168542
0.00154587
0.00141753
0.00129396
0.00117335
0.0010639
0.000978127
0.00196539
0.00249439
0.00123609
0.00134736
0.00148108
0.00162495
0.00177177
0.00192633
0.00208972
0.00225742
0.00240738
0.00252996
0.00260626
0.00268619
0.00279998
0.00300795
0.00331959
0.00349498
0.0035075
0.00340388
0.00322906
0.00301237
0.00278001
0.00254708
0.00232778
0.00212396
0.00193641
0.00176509
0.00160925
0.00146755
0.00133797
0.00121797
0.00110702
0.00101433
0.000936345
0.00191521
0.0024273
0.00118225
0.00128735
0.00140672
0.00154789
0.00169926
0.00185736
0.00201491
0.00216809
0.00229681
0.00238354
0.00241025
0.00243674
0.0025097
0.00268441
0.00302769
0.00325021
0.00330685
0.00323754
0.00308514
0.00288111
0.00266252
0.00244599
0.00223853
0.00204356
0.00186264
0.0016959
0.00154269
0.00140182
0.00127234
0.00115427
0.00105163
0.000974377
0.000894381
0.00184043
0.00232738
0.00113818
0.00124825
0.00135411
0.00148763
0.00163426
0.00178511
0.00193104
0.00206433
0.00216632
0.00221894
0.00219674
0.00216683
0.00221031
0.0023284
0.00268703
0.00296782
0.0030765
0.00304156
0.00291063
0.00273536
0.00254071
0.00234194
0.00214823
0.00196439
0.00179286
0.00163428
0.00148809
0.00135299
0.00122837
0.00111649
0.00102681
0.000953683
0.000868861
0.00175706
0.00223937
0.00113485
0.00124812
0.00134665
0.00146269
0.00159584
0.00173604
0.00187317
0.00199659
0.00208605
0.00211462
0.00205502
0.00197077
0.00197621
0.00204641
0.00237709
0.00270855
0.00287112
0.00288749
0.00280353
0.00266002
0.00248572
0.0022988
0.00211101
0.00192929
0.0017582
0.00160009
0.00145579
0.00132521
0.00120919
0.00110978
0.00104213
0.000967814
0.000873722
0.00169264
0.00339179
0.00246543
0.00272422
0.00288599
0.00306576
0.00335198
0.00367362
0.00400703
0.00430576
0.00449978
0.00452406
0.00432219
0.00398534
0.00379305
0.00395993
0.0046124
0.00544
0.00596904
0.00616882
0.0061137
0.00588327
0.00554239
0.0051379
0.00470481
0.00426951
0.0038492
0.00345546
0.00309743
0.00278388
0.00252672
0.00233963
0.00224842
0.00212185
0.00189868
0.00257212
0.00286373
0.001537
0.00205329
0.00253461
0.00287619
0.00303719
0.00303986
0.00293629
0.00278346
0.00261894
0.00246266
0.0023219
0.00220013
0.0020989
0.00201933
0.00196245
0.00193248
0.00193401
0.00196609
0.00202547
0.00210802
0.00221288
0.00233902
0.00248507
0.00264823
0.00282221
0.00298964
0.00311712
0.00315137
0.00304314
0.00276149
0.00232554
0.0017897
0.00130876
0.00257842
0.00160623
0.00218301
0.00234238
0.0023916
0.00233305
0.00222221
0.00213358
0.0021
0.00211364
0.00215249
0.00219323
0.00223158
0.00226333
0.00229049
0.00231306
0.00233107
0.00234924
0.00235345
0.00234205
0.0023303
0.00231327
0.00229067
0.00226251
0.00222713
0.00218743
0.0021464
0.00212641
0.00214987
0.00222945
0.00234176
0.00243259
0.00243252
0.00231475
0.00210252
0.00147164
0.00179344
0.00215401
0.00214805
0.0020517
0.00193822
0.00192289
0.00208219
0.00229898
0.00238099
0.00246352
0.00253203
0.00258832
0.00263408
0.00266978
0.00269799
0.0027178
0.00273308
0.0027397
0.00273518
0.00272576
0.00270714
0.00267981
0.00264047
0.00258784
0.00251863
0.00243099
0.00234063
0.00213628
0.00194426
0.00192293
0.00201843
0.00212994
0.0021748
0.00211761
0.0016731
0.00192869
0.00212412
0.00202235
0.00192283
0.00200424
0.0021707
0.00224553
0.00229856
0.00232419
0.00242727
0.00253608
0.00262605
0.00270098
0.00275826
0.00280264
0.00283483
0.00285831
0.0028687
0.00286286
0.002848
0.00282011
0.00277815
0.00271585
0.00263058
0.00251687
0.00239235
0.00233274
0.00225713
0.00216895
0.00203603
0.00188068
0.00193773
0.00204984
0.00209627
0.00179692
0.00208356
0.0021088
0.00196107
0.00193948
0.00209959
0.00218903
0.00230384
0.00254059
0.00292168
0.00332007
0.00365135
0.00389676
0.00408956
0.00424349
0.00436898
0.00446979
0.00454544
0.00456463
0.00452459
0.00446
0.00437034
0.00425157
0.00409196
0.00387779
0.00357414
0.0031687
0.00272112
0.00240503
0.00223683
0.00211986
0.00196691
0.00188181
0.00198065
0.00208748
0.00194234
0.00227089
0.00213512
0.0019895
0.00207593
0.00231332
0.00253604
0.00292397
0.00362897
0.00450168
0.00515177
0.00561263
0.00592021
0.00615432
0.00633111
0.0064717
0.00657795
0.00665053
0.00667203
0.00664039
0.00657674
0.00648032
0.00635028
0.00616502
0.00591053
0.00550244
0.00488827
0.00398021
0.00317739
0.00269323
0.00240206
0.00219688
0.00196091
0.00199707
0.00211596
0.00211612
0.00248077
0.00219329
0.00205336
0.00220385
0.00257347
0.00296226
0.00361831
0.0046876
0.00585839
0.00663932
0.00715481
0.00747418
0.0077068
0.00787591
0.00800739
0.00810329
0.00816487
0.00818115
0.00815058
0.00808635
0.00798724
0.00785232
0.00765666
0.00737932
0.00690964
0.0061755
0.00501676
0.00389669
0.00316085
0.00270369
0.00235902
0.00205761
0.00205532
0.00217309
0.00230693
0.00270221
0.00227105
0.00212636
0.0022965
0.00279625
0.00331051
0.0041413
0.00541483
0.0067203
0.00754516
0.00806831
0.00837863
0.00859862
0.00875508
0.00887494
0.00896017
0.00901242
0.00902351
0.00899207
0.00892714
0.00882702
0.00869094
0.00849346
0.00821055
0.00772075
0.00693998
0.00566826
0.00438328
0.00350245
0.00293612
0.00245444
0.00214263
0.00212931
0.00224714
0.00250346
0.00292692
0.0023604
0.00220121
0.00235705
0.00295023
0.00353652
0.00445035
0.00580993
0.0071543
0.00796781
0.00846736
0.00875855
0.00896261
0.00910629
0.00921506
0.00929075
0.0093354
0.00934256
0.00931065
0.00924634
0.00914733
0.00901298
0.00881952
0.00854347
0.00806546
0.0072885
0.00598284
0.00463615
0.00369961
0.00308137
0.00249971
0.00221406
0.00220794
0.00232928
0.00269738
0.00314697
0.00245603
0.00227578
0.00238983
0.00299579
0.00362381
0.00453438
0.00587118
0.00717591
0.00793622
0.00838864
0.00865417
0.0088408
0.00897263
0.00907183
0.00914008
0.00917951
0.00918436
0.00915275
0.00909008
0.00899372
0.00886328
0.00867835
0.00841828
0.00797686
0.00724245
0.00597143
0.00466135
0.00375073
0.00313543
0.00250851
0.00227506
0.00228641
0.00241352
0.00288161
0.00335419
0.00255435
0.00235057
0.00240199
0.00288375
0.00356809
0.00437932
0.00553432
0.00669815
0.00737569
0.00777354
0.00801299
0.00818342
0.00830453
0.00839519
0.00845674
0.00849142
0.00849487
0.00846485
0.00840539
0.00831338
0.00818842
0.00801336
0.00777144
0.00737362
0.00670756
0.00557052
0.00445257
0.00365919
0.003035
0.00248855
0.00233015
0.00236277
0.00249586
0.00304959
0.00354015
0.00265229
0.00242726
0.00241377
0.00272903
0.00340789
0.0040665
0.00493853
0.00585313
0.00641493
0.0067451
0.00695014
0.00709903
0.00720622
0.00728659
0.00734052
0.00737003
0.00737273
0.00734607
0.00729317
0.00721076
0.00709868
0.00694371
0.00673308
0.00639578
0.00583496
0.00494307
0.00410716
0.00347275
0.0028413
0.00246428
0.00238574
0.0024361
0.00257337
0.00319512
0.00369691
0.00274667
0.00250622
0.00244127
0.0026038
0.0031521
0.00372014
0.00436156
0.00502866
0.00545878
0.00571378
0.00587556
0.00599576
0.00608407
0.00615074
0.00619534
0.00621969
0.00622211
0.00620016
0.00615679
0.00608917
0.00599779
0.0058733
0.00570644
0.00544327
0.00501088
0.00436059
0.00374733
0.00322534
0.00267662
0.00246006
0.00244515
0.00250454
0.00264355
0.00331279
0.00381868
0.00283422
0.00258502
0.00248873
0.00253712
0.00286196
0.00340521
0.00387621
0.00434954
0.00466206
0.00484894
0.00496834
0.00505859
0.00512638
0.00517819
0.00521221
0.00523057
0.00523258
0.00521589
0.00518345
0.00513288
0.00506498
0.00497343
0.00485161
0.00465913
0.00434346
0.00388015
0.00342841
0.00291123
0.00257621
0.00248211
0.00250674
0.00256517
0.00270434
0.00339884
0.00390262
0.00291201
0.00265893
0.00254989
0.00252801
0.0026817
0.00305647
0.00349508
0.00383123
0.00405346
0.00418065
0.00421269
0.00423971
0.00427219
0.0043002
0.00431876
0.00432859
0.00432247
0.00430006
0.00427555
0.00424906
0.00422152
0.00420123
0.00417474
0.00406
0.00383631
0.00350542
0.00306897
0.00271106
0.00254344
0.00252352
0.00256528
0.0026148
0.00275441
0.00345149
0.00394882
0.00297818
0.00272322
0.00261467
0.00255661
0.00260597
0.00281203
0.00312439
0.0033698
0.00349122
0.00353809
0.00355158
0.00356567
0.00358466
0.00360176
0.00361233
0.00361754
0.00361384
0.00360056
0.00358656
0.00357156
0.00355655
0.00354726
0.00353681
0.00349133
0.00336312
0.00311844
0.00282212
0.0026236
0.00255528
0.00257197
0.00261478
0.00265107
0.00279349
0.00347081
0.00395973
0.00303235
0.00277471
0.00267425
0.00260235
0.00259615
0.00269769
0.00288513
0.00305269
0.00313822
0.00317466
0.00319227
0.00320818
0.00322394
0.00323715
0.00324474
0.00324843
0.00324784
0.00324169
0.00323369
0.00322299
0.00320995
0.00319615
0.00317921
0.00314132
0.00304982
0.00288408
0.00270737
0.00260511
0.00258712
0.00261634
0.00265089
0.00267316
0.00282246
0.00345837
0.0039392
0.00307553
0.00281241
0.00272308
0.00265026
0.00261788
0.00266236
0.00277651
0.00289461
0.0029666
0.00300537
0.00302862
0.00304771
0.00306336
0.00307548
0.00308231
0.00308581
0.0030871
0.00308477
0.00307922
0.00306928
0.00305506
0.0030362
0.0030124
0.00297207
0.00289634
0.0027791
0.00267022
0.00261798
0.00262127
0.00264948
0.00267177
0.00268194
0.00284329
0.00341681
0.00389162
0.00310982
0.00283727
0.00275903
0.00269187
0.00264969
0.0026647
0.00273836
0.00282852
0.0028936
0.00293506
0.00296293
0.00298491
0.0030016
0.00301393
0.00302118
0.00302523
0.00302772
0.00302715
0.00302207
0.00301123
0.00299469
0.00297145
0.00294216
0.00289888
0.00283109
0.00274112
0.00266782
0.00263901
0.00264775
0.00266839
0.0026779
0.00267965
0.00285872
0.00334879
0.00382139
0.0031381
0.0028516
0.00278259
0.00272386
0.0026806
0.00268131
0.00273255
0.00280628
0.00286724
0.00291062
0.00294175
0.00296589
0.00298375
0.00299678
0.00300492
0.00300981
0.00301308
0.00301314
0.00300751
0.00299507
0.00297602
0.00294926
0.00291584
0.00287019
0.0028066
0.00273176
0.00267626
0.00265645
0.00266259
0.00267327
0.00267146
0.00266968
0.00287177
0.00325651
0.00373182
0.00316361
0.00285847
0.00279584
0.00274627
0.00270638
0.0027011
0.00273988
0.00280343
0.00286156
0.00290602
0.00293913
0.00296457
0.00298335
0.00299709
0.00300614
0.00301184
0.0030155
0.00301549
0.00300899
0.00299472
0.00297328
0.00294384
0.00290744
0.00285996
0.0027985
0.00273176
0.00268429
0.00266581
0.00266566
0.00266627
0.0026557
0.00265587
0.00288576
0.00313892
0.00362504
0.00318948
0.00286144
0.00280159
0.0027609
0.0027266
0.00271998
0.00275197
0.0028089
0.00286492
0.0029098
0.00294389
0.00296992
0.00298922
0.00300346
0.0030132
0.00301946
0.00302314
0.00302255
0.00301491
0.00299919
0.00297562
0.00294403
0.00290538
0.00285635
0.0027957
0.00273282
0.00268785
0.00266668
0.00265894
0.00265062
0.00263438
0.00264251
0.00289692
0.0029952
0.00349955
0.00321898
0.00286406
0.0028029
0.00277026
0.00274263
0.00273738
0.00276589
0.00281845
0.00287284
0.00291778
0.00295223
0.00297834
0.00299782
0.0030123
0.0030224
0.00302889
0.00303222
0.00303066
0.0030217
0.00300458
0.00297959
0.00294636
0.00290559
0.00285497
0.00279394
0.00273216
0.00268654
0.00266073
0.00264538
0.00262992
0.00261144
0.0026339
0.00290522
0.00283264
0.00335411
0.00325094
0.00286988
0.00280274
0.00277696
0.00275643
0.00275422
0.0027813
0.00283097
0.00288408
0.00292892
0.00296343
0.00298936
0.0030088
0.00302329
0.00303349
0.00303991
0.00304254
0.00303972
0.00302927
0.00301077
0.00298448
0.00295017
0.00290792
0.00285476
0.00279238
0.00272981
0.00268156
0.00265036
0.00262826
0.00260785
0.00259093
0.00263727
0.00290785
0.00265741
0.00319144
0.00328321
0.00288257
0.00280393
0.00278333
0.00277001
0.00277189
0.00279887
0.0028465
0.00289852
0.0029432
0.00297767
0.00300334
0.00302265
0.00303708
0.00304728
0.0030534
0.003055
0.00305066
0.00303861
0.00301872
0.00299115
0.00295566
0.00291184
0.00285694
0.00279192
0.00272672
0.00267479
0.00263827
0.00261076
0.00258792
0.00257782
0.00265598
0.00290483
0.00247526
0.00301522
0.00331368
0.0029078
0.00280931
0.00279152
0.00278504
0.00279165
0.00281946
0.00286562
0.00291657
0.00296097
0.00299539
0.00302085
0.00304007
0.00305451
0.00306471
0.00307022
0.00307037
0.00306425
0.00305054
0.00302927
0.00300041
0.00296356
0.0029178
0.00286064
0.00279329
0.00272504
0.00266858
0.00262699
0.00259567
0.00257394
0.00257869
0.00268989
0.00289643
0.00228981
0.00282675
0.0033373
0.00295296
0.00282256
0.00280348
0.00280291
0.00281455
0.00284397
0.0028892
0.0029393
0.00298367
0.00301874
0.00304437
0.00306383
0.00307837
0.00308822
0.00309207
0.00308951
0.00308092
0.00306534
0.00304271
0.00301263
0.00297425
0.00292625
0.00286642
0.00279644
0.00272517
0.00266466
0.00261931
0.00258695
0.00257173
0.00259881
0.00273792
0.00287862
0.00210062
0.00262688
0.0033554
0.00301678
0.00285026
0.00282153
0.00282466
0.00284134
0.00287314
0.00291839
0.00296867
0.00301451
0.00305319
0.00308083
0.00310151
0.00311583
0.00312336
0.00312232
0.00311369
0.00310084
0.00308274
0.00305873
0.00302758
0.0029877
0.00293732
0.00287469
0.00280212
0.00272832
0.00266511
0.0026184
0.0025893
0.00258747
0.00264268
0.00279832
0.00285161
0.00190659
0.00241565
0.00336396
0.00309915
0.00289822
0.00284978
0.00285178
0.00287262
0.00290775
0.00295478
0.00300821
0.00306063
0.00311352
0.00315062
0.00317581
0.00318828
0.00318752
0.00317248
0.00314814
0.00312586
0.00310292
0.0030769
0.0030448
0.00300357
0.00295099
0.00288581
0.0028112
0.00273615
0.00267264
0.00262853
0.00260891
0.00262814
0.00271302
0.00286419
0.00281464
0.00170651
0.0021901
0.00335943
0.00319812
0.00297257
0.00289412
0.00288677
0.0029086
0.00294711
0.00299827
0.00306025
0.00312859
0.00321411
0.00327729
0.00331577
0.00332191
0.00330033
0.00325418
0.00319698
0.00315653
0.00312495
0.00309597
0.00306324
0.00302124
0.00296716
0.00290034
0.00282509
0.00275121
0.00269149
0.00265615
0.00265417
0.00270109
0.00281003
0.00292493
0.0027655
0.00149972
0.00194811
0.00333938
0.00331165
0.00307933
0.00296296
0.00293445
0.00295039
0.00299047
0.00304878
0.00312895
0.0032319
0.0033937
0.00351824
0.00359451
0.00358031
0.00351271
0.0034011
0.00327309
0.0031974
0.00314933
0.00311507
0.00308191
0.00304016
0.00298605
0.00291954
0.00284653
0.0027783
0.00272903
0.00271119
0.00273532
0.00281062
0.00291919
0.00297467
0.00270013
0.00128752
0.00168946
0.00329952
0.00342446
0.00322123
0.00306678
0.00300323
0.00300073
0.00303486
0.00309862
0.00320117
0.00335689
0.00363501
0.0038642
0.00401395
0.00396236
0.00381866
0.0036038
0.00336802
0.0032392
0.00316968
0.00312984
0.00309832
0.00305951
0.00300862
0.00294658
0.00288147
0.00282658
0.00279739
0.00280645
0.00285929
0.00294361
0.00302556
0.00300577
0.00261616
0.00107782
0.00142274
0.00322766
0.00352126
0.00339761
0.00321803
0.00310774
0.0030688
0.00308069
0.00313799
0.00324886
0.00344739
0.00380496
0.00415076
0.00449112
0.00427682
0.00406603
0.00376125
0.00343923
0.00326168
0.00317683
0.00313596
0.00311139
0.00308104
0.00303982
0.00299004
0.00294248
0.00291189
0.00291229
0.0029489
0.0030085
0.00307954
0.00311772
0.00301554
0.00253847
0.000952469
0.00120995
0.00313775
0.00359168
0.00357596
0.00342067
0.00326785
0.00317522
0.00314029
0.00316734
0.00325713
0.00347017
0.00386726
0.00443578
0.00484652
0.00452913
0.00419394
0.00382341
0.003456
0.00324912
0.00316213
0.0031297
0.00312185
0.00311037
0.00309068
0.00306618
0.0030485
0.00304841
0.00306855
0.00310865
0.00316052
0.00320343
0.00318648
0.00301551
0.00248434
0.000932203
0.00116909
0.00305856
0.00363166
0.00373432
0.00365052
0.00349446
0.00335134
0.00325264
0.00322492
0.0032661
0.0034658
0.00388326
0.00451328
0.00460747
0.00433994
0.00417393
0.0037845
0.00340876
0.00320131
0.0031332
0.00312736
0.00315337
0.00317691
0.00319232
0.00319863
0.00319986
0.00320806
0.00323107
0.00326448
0.00329498
0.00330001
0.00323644
0.00301841
0.00245931
0.000945495
0.00118205
0.00300183
0.00364293
0.00385178
0.00385813
0.00377084
0.00362506
0.00347406
0.00337798
0.00334395
0.00348536
0.00381115
0.00446021
0.004373