/*--------------------------------*- C++ -*----------------------------------*\
| =========                 |                                                 |
| \\      /  F ield         | OpenFOAM: The Open Source CFD Toolbox           |
|  \\    /   O peration     | Version:  2.3.1                                 |
|   \\  /    A nd           | Web:      www.OpenFOAM.org                      |
|    \\/     M anipulation  |                                                 |
\*---------------------------------------------------------------------------*/
FoamFile
{
    version     2.0;
    format      ascii;
    class       volScalarField;
    location    "600";
    object      epsilon;
}
// * * * * * * * * * * * * * * * * * * * * * * * * * * * * * * * * * * * * * //

dimensions      [0 2 -3 0 0 0 0];

internalField   nonuniform List<scalar> 
47964
(
0.00221118
0.00483107
0.0105444
0.0195178
0.0287892
0.0349079
0.0363201
0.0338151
0.029394
0.0246736
0.0204255
0.0169171
0.0141434
0.0120473
0.0105267
0.00951763
0.00900475
0.00902936
0.00958058
0.0106417
0.0122368
0.0144437
0.0173777
0.0211224
0.0257219
0.0309624
0.0361456
0.0397041
0.0395015
0.0343197
0.0250938
0.0148285
0.00695522
0.00304753
0.00153479
0.00488188
0.0174993
0.0345751
0.0518851
0.0637126
0.0669164
0.0626264
0.0542898
0.0454262
0.0378606
0.0317747
0.0270313
0.0233701
0.020646
0.018674
0.0173685
0.0167048
0.016756
0.0174918
0.0188908
0.020989
0.0238919
0.0277967
0.0328784
0.0394413
0.0476859
0.0575606
0.0675223
0.0740546
0.073416
0.0636637
0.0466285
0.0280826
0.0126843
0.00341633
0.00815347
0.0279883
0.0479723
0.0628709
0.0683361
0.064236
0.0547371
0.0440378
0.0351711
0.0290496
0.0247167
0.0215033
0.0190716
0.0172563
0.0159262
0.0150297
0.014569
0.0146209
0.0151562
0.0161435
0.0175896
0.019561
0.0221921
0.0256519
0.0302986
0.0368205
0.0462646
0.0583338
0.0698738
0.077002
0.0750252
0.0625519
0.0430537
0.022669
0.00603977
0.0112188
0.0347897
0.0541969
0.0639886
0.0616578
0.0500132
0.0376834
0.0286832
0.0231643
0.019679
0.0172298
0.0153876
0.0139581
0.0128768
0.0120725
0.0115366
0.0112933
0.0113397
0.0116568
0.0122803
0.0131918
0.0144105
0.0160089
0.0180518
0.020753
0.0245278
0.0304171
0.0399843
0.0533623
0.0679098
0.0743615
0.068632
0.0516196
0.0294939
0.00870558
0.0148122
0.0408599
0.057453
0.0613308
0.0528645
0.0405564
0.0306256
0.0238419
0.0201176
0.0176745
0.0157273
0.0141336
0.0127964
0.0117412
0.0109175
0.0103512
0.0100957
0.0101464
0.0104879
0.0111565
0.0121056
0.013322
0.0148643
0.0167298
0.0190268
0.0218656
0.0259622
0.0332385
0.0438697
0.0573317
0.0693298
0.0699621
0.057191
0.0357276
0.0118332
0.0197355
0.0505748
0.0679266
0.0711835
0.0612803
0.0482885
0.0378816
0.0307046
0.0266773
0.0237202
0.0212554
0.0192828
0.0176877
0.0164726
0.0155658
0.0149714
0.0147187
0.0147625
0.0150936
0.0157855
0.0168198
0.0182076
0.0200338
0.0223264
0.0252294
0.0287503
0.033402
0.04121
0.0523304
0.0662574
0.0795412
0.0806638
0.0674256
0.0442591
0.0158758
0.0260208
0.0631137
0.0824644
0.0862649
0.0755168
0.0605951
0.0485112
0.0401079
0.0353573
0.0318058
0.0288831
0.026589
0.0247805
0.0234339
0.0224563
0.0218188
0.0215273
0.021554
0.021893
0.0225902
0.0236516
0.0251239
0.0271182
0.0296934
0.033026
0.0371456
0.0425996
0.051713
0.0645547
0.0803529
0.0943777
0.0950155
0.0801492
0.054479
0.0207906
0.0335656
0.0780369
0.100239
0.105487
0.0943533
0.0767307
0.0622704
0.0522097
0.0467033
0.0426259
0.0393617
0.036843
0.0348992
0.0334667
0.0324408
0.0317671
0.0314403
0.031443
0.031772
0.0324495
0.0334909
0.0349689
0.0370089
0.0397141
0.0432927
0.0478547
0.0540139
0.0647062
0.0797868
0.0980665
0.112433
0.111733
0.0944296
0.065841
0.0264015
0.0421377
0.0949549
0.120888
0.12872
0.118096
0.0972572
0.0798006
0.0677284
0.0616074
0.0571799
0.0537348
0.0510969
0.0490804
0.0475863
0.0465145
0.0457963
0.0454206
0.0453861
0.0456936
0.0463295
0.047312
0.0487294
0.0507034
0.0533774
0.0569753
0.0617197
0.0683206
0.0807653
0.0984721
0.119531
0.133377
0.130209
0.109616
0.0777978
0.0324251
0.0512616
0.113062
0.143532
0.15526
0.146538
0.122762
0.101796
0.0873896
0.0809479
0.0765115
0.0731618
0.0705897
0.0686202
0.0671281
0.0660405
0.0652867
0.0648512
0.0647602
0.06502
0.0655593
0.0663953
0.0676234
0.06934
0.0717247
0.0749882
0.0794847
0.0861143
0.100441
0.12103
0.14472
0.156469
0.149385
0.124717
0.0895668
0.0384349
0.0602219
0.131143
0.16678
0.183727
0.178562
0.154515
0.129932
0.112874
0.106384
0.102468
0.0996501
0.0974368
0.0957066
0.0943251
0.0932801
0.0925168
0.0920138
0.0918417
0.0920136
0.0923656
0.092911
0.0937424
0.0949028
0.0966029
0.0989991
0.10263
0.108928
0.125283
0.148631
0.172722
0.180329
0.167772
0.138479
0.100185
0.0438921
0.0681151
0.147532
0.188577
0.212105
0.213579
0.194033
0.167455
0.148538
0.141921
0.138855
0.13696
0.135411
0.134121
0.13296
0.13201
0.131257
0.130666
0.130378
0.130414
0.13046
0.130527
0.130697
0.130937
0.131504
0.132541
0.13492
0.140908
0.158354
0.182678
0.201976
0.202567
0.183182
0.14933
0.108556
0.0482131
0.0740459
0.16046
0.206485
0.237156
0.247941
0.237707
0.213552
0.194535
0.188556
0.187275
0.18719
0.18702
0.186658
0.186021
0.185341
0.184655
0.183936
0.183468
0.183257
0.182767
0.181995
0.180983
0.179596
0.178136
0.176816
0.176944
0.181773
0.198489
0.219939
0.229205
0.220071
0.193358
0.155859
0.11373
0.0509014
0.0773686
0.168498
0.218324
0.255306
0.276185
0.277755
0.264089
0.248178
0.244456
0.24634
0.249232
0.251399
0.252682
0.253085
0.252988
0.252537
0.251713
0.250969
0.250273
0.248835
0.246637
0.243657
0.239684
0.235047
0.230095
0.226544
0.228551
0.241355
0.251831
0.248953
0.22954
0.196564
0.157214
0.115143
0.051675
0.0778476
0.170909
0.222822
0.264013
0.293755
0.30772
0.307634
0.301675
0.302307
0.308585
0.315298
0.319801
0.322796
0.324556
0.325289
0.325236
0.324336
0.323011
0.321208
0.318195
0.314014
0.30858
0.301897
0.294059
0.284811
0.276354
0.273441
0.2755
0.272336
0.257158
0.229031
0.192228
0.153327
0.112731
0.0505301
0.0756786
0.167775
0.21992
0.262523
0.298228
0.322516
0.334948
0.340632
0.347738
0.357805
0.367142
0.374445
0.379633
0.383136
0.38499
0.385512
0.384563
0.382519
0.379275
0.374277
0.367657
0.35929
0.349382
0.337836
0.325045
0.312024
0.301963
0.292529
0.277216
0.252235
0.218622
0.18111
0.144899
0.106905
0.0477257
0.0713812
0.159886
0.210644
0.251929
0.29001
0.32096
0.342774
0.357806
0.370948
0.384716
0.396745
0.406659
0.413962
0.419148
0.422107
0.423177
0.422134
0.419295
0.414474
0.407399
0.398298
0.387057
0.374058
0.359074
0.342813
0.32543
0.308864
0.290349
0.266353
0.235544
0.200258
0.16498
0.133128
0.0984018
0.0437021
0.0656315
0.148439
0.196664
0.234566
0.271764
0.305445
0.332739
0.353956
0.371577
0.388121
0.402207
0.414007
0.422879
0.429295
0.433046
0.434441
0.433178
0.429502
0.423247
0.41429
0.403069
0.389497
0.37408
0.356532
0.337637
0.317037
0.295818
0.271613
0.243072
0.210538
0.176927
0.146014
0.119357
0.087993
0.0390261
0.0591043
0.134734
0.179805
0.213168
0.24717
0.280371
0.309621
0.33391
0.354068
0.372116
0.387316
0.400068
0.409748
0.416754
0.420828
0.422209
0.420552
0.416033
0.408601
0.398195
0.385412
0.370302
0.35341
0.334439
0.314118
0.291864
0.268284
0.24175
0.212344
0.181346
0.151691
0.12623
0.104753
0.0765903
0.0341258
0.0524426
0.119785
0.161652
0.19019
0.219775
0.250412
0.279083
0.304044
0.325049
0.343463
0.358906
0.371795
0.381598
0.388606
0.392549
0.393581
0.39135
0.385998
0.377589
0.366259
0.352581
0.336616
0.319148
0.299815
0.279231
0.256791
0.232897
0.20667
0.179019
0.1516
0.127012
0.107123
0.0898219
0.065461
0.0292831
0.0459745
0.10456
0.14336
0.167444
0.192306
0.21937
0.24601
0.270154
0.290888
0.308938
0.324066
0.336594
0.346081
0.352703
0.3562
0.356631
0.353685
0.347505
0.338278
0.326316
0.312224
0.296183
0.278757
0.259722
0.239737
0.218185
0.195426
0.171189
0.146772
0.123839
0.10447
0.089371
0.0757481
0.0549374
0.0247337
0.0398643
0.0903034
0.125168
0.146006
0.166477
0.189759
0.213782
0.236415
0.256346
0.273745
0.288367
0.300385
0.309407
0.315496
0.318399
0.31809
0.314334
0.307316
0.297354
0.284911
0.270629
0.254788
0.237892
0.219801
0.200822
0.180649
0.159841
0.13843
0.117816
0.099404
0.0846473
0.0738204
0.062874
0.0452814
0.0205144
0.0342354
0.0771524
0.108016
0.126146
0.143115
0.162888
0.184264
0.205236
0.224271
0.241079
0.255305
0.266942
0.275585
0.281189
0.283494
0.282403
0.277781
0.269886
0.259194
0.246298
0.23188
0.216307
0.200019
0.182961
0.165349
0.147002
0.128402
0.109935
0.0930219
0.078864
0.0682633
0.0604118
0.0513155
0.0366361
0.0166534
0.0290003
0.0651471
0.0921858
0.108243
0.122195
0.139176
0.158156
0.17761
0.195908
0.212392
0.226516
0.23808
0.246585
0.251877
0.253677
0.251825
0.246302
0.237468
0.225987
0.212575
0.19797
0.182602
0.166868
0.150785
0.134513
0.118012
0.101743
0.0862998
0.0729029
0.0623668
0.0548293
0.0488907
0.041122
0.0290482
0.0131878
0.0241033
0.0542416
0.077652
0.0922282
0.104073
0.118349
0.135232
0.153495
0.171404
0.187909
0.202303
0.214192
0.222876
0.228092
0.229542
0.226989
0.220545
0.21069
0.198325
0.18429
0.169396
0.154123
0.138841
0.123625
0.108618
0.0939001
0.0799233
0.0673262
0.0569904
0.0492792
0.0438123
0.0390233
0.0322877
0.0225091
0.0101496
0.0195421
0.0443474
0.0643529
0.077776
0.0882756
0.100481
0.115473
0.132552
0.150107
0.166904
0.181921
0.194687
0.203935
0.209324
0.210625
0.207478
0.200121
0.189168
0.175827
0.161061
0.145783
0.130507
0.115595
0.101164
0.0873592
0.0743426
0.0625312
0.0524551
0.0445997
0.0389196
0.0347359
0.0306166
0.0247704
0.017003
0.00755649
0.0153424
0.0353899
0.0522288
0.0646187
0.074301
0.0850113
0.0983542
0.114251
0.13143
0.14862
0.164474
0.178288
0.18858
0.194405
0.195838
0.192283
0.184093
0.172006
0.157637
0.142079
0.126367
0.111048
0.0964827
0.0828145
0.0701926
0.0588008
0.0489631
0.0409975
0.0350154
0.0306811
0.0272295
0.0235312
0.0185306
0.0125523
0.00540726
0.0115508
0.0273413
0.041249
0.0525754
0.0617323
0.0714086
0.0833425
0.0980047
0.114612
0.132041
0.148675
0.163635
0.174908
0.181459
0.183437
0.179856
0.171114
0.158013
0.142698
0.1264
0.110302
0.0949879
0.0808237
0.0679634
0.0565368
0.0466835
0.0385718
0.0322687
0.0275999
0.0240873
0.0210377
0.0176766
0.0135085
0.0090643
0.00368881
0.00823843
0.0203314
0.0314663
0.0415825
0.0502838
0.0592308
0.0699723
0.083323
0.0990177
0.116242
0.133245
0.149052
0.160877
0.168117
0.171342
0.168506
0.159812
0.146029
0.130021
0.113181
0.096856
0.0816922
0.0680531
0.0560862
0.0458634
0.0374199
0.0307357
0.0256567
0.0218433
0.0188071
0.0160148
0.0130147
0.0096687
0.00642631
0.00240325
0.00549977
0.0145184
0.0230346
0.031729
0.0398477
0.0481863
0.0578918
0.0698444
0.08418
0.100411
0.116815
0.132378
0.14358
0.150492
0.156203
0.155636
0.148345
0.134801
0.118714
0.101766
0.0855097
0.0707247
0.0577716
0.0467756
0.0377145
0.0304874
0.0249023
0.0206623
0.0173792
0.014641
0.0120929
0.00952127
0.00696459
0.00454611
0.00156038
0.00347894
0.0100307
0.0161619
0.0232418
0.0305147
0.0381794
0.0469132
0.057401
0.0699556
0.0842564
0.0987224
0.112307
0.120433
0.124447
0.135047
0.139412
0.135594
0.123595
0.108279
0.0918197
0.0760068
0.0618575
0.0497275
0.0397153
0.0316895
0.0254271
0.0206233
0.0169298
0.0139925
0.0115065
0.00926061
0.00717078
0.00521288
0.00336121
0.0011792
0.0024335
0.00704909
0.011233
0.0165268
0.0226034
0.0293587
0.0370675
0.0460601
0.056577
0.0681157
0.079167
0.0882258
0.08979
0.0885583
0.105135
0.118118
0.120914
0.112455
0.0988764
0.0835068
0.068441
0.0550869
0.0438003
0.0346641
0.0274573
0.0218834
0.0175967
0.0142645
0.0115967
0.00937607
0.00746323
0.00574921
0.00414603
0.00266111
0.000982409
0.00200498
0.00542634
0.00831242
0.0119115
0.0165504
0.0220962
0.0285995
0.0360379
0.0443969
0.0526831
0.0593285
0.0619991
0.0534024
0.0461446
0.0674056
0.0923767
0.104372
0.101519
0.0907628
0.0770559
0.062981
0.0504564
0.0399003
0.0314218
0.0247642
0.0196167
0.0156448
0.0125554
0.0101061
0.00811322
0.00641557
0.00489405
0.00350033
0.00228327
0.00091844
0.0018411
0.0046192
0.00685655
0.00945108
0.0127319
0.0169275
0.022068
0.0279804
0.0344924
0.0404124
0.0440723
0.0435785
0.0418402
0.0498177
0.0556298
0.0775919
0.0941707
0.0947149
0.0859321
0.0734032
0.0600335
0.0480303
0.0378814
0.0297271
0.0233165
0.018353
0.0145209
0.0115446
0.00920296
0.00730313
0.00569579
0.00428823
0.00305885
0.00211474
0.000930941
0.00187494
0.00430971
0.0060846
0.00827765
0.0107923
0.0139342
0.01784
0.0223776
0.0274589
0.0322667
0.036837
0.0406188
0.0456179
0.0555716
0.0664438
0.0838762
0.0959282
0.0950264
0.0856394
0.0727903
0.0592513
0.0471362
0.0369217
0.0287287
0.0223033
0.0173363
0.0135391
0.010631
0.00835626
0.00651903
0.00500472
0.00372367
0.00268292
0.00198821
0.000946537
0.00192485
0.0040446
0.00542375
0.00729138
0.0095078
0.0120761
0.015404
0.0195204
0.0244835
0.0296632
0.0348092
0.0391779
0.0445005
0.0526365
0.0644682
0.0824265
0.0936216
0.092709
0.0834939
0.0708047
0.0574134
0.0453552
0.0351665
0.02696
0.0205972
0.0157572
0.0120845
0.00929841
0.0071747
0.00553197
0.0042077
0.00313734
0.00233874
0.00181745
0.000921511
0.00188386
0.00366801
0.00475036
0.0063098
0.0083329
0.0108019
0.0138826
0.0177233
0.0223417
0.0270964
0.0314502
0.0343823
0.0376437
0.0426327
0.0528559
0.0710452
0.0829117
0.0838058
0.0765957
0.0653899
0.053089
0.0417272
0.032093
0.0244966
0.0186089
0.0141018
0.0106802
0.00809382
0.00613846
0.00465182
0.00350901
0.00263476
0.00202685
0.00159435
0.000852716
0.00173591
0.00320923
0.0041435
0.00540632
0.0072027
0.00952917
0.0124443
0.0158871
0.019793
0.0235319
0.0262996
0.0271934
0.0280999
0.0307004
0.0375688
0.0539032
0.0666828
0.0702303
0.0659062
0.0570301
0.0464475
0.0366573
0.0284215
0.0217856
0.0165746
0.0125507
0.00947291
0.00713037
0.00535007
0.00400022
0.00298679
0.00225874
0.00179663
0.00138946
0.000756688
0.00153025
0.00286359
0.00377732
0.00482213
0.0063939
0.00847699
0.0110478
0.0139848
0.0170851
0.0197445
0.0212187
0.0205881
0.0197586
0.0209721
0.0245163
0.0376789
0.0507684
0.0565523
0.0546473
0.0478895
0.0397487
0.0318527
0.0249463
0.0192542
0.0147219
0.0111924
0.00847738
0.00639976
0.00481021
0.00359967
0.00270301
0.00210253
0.00168457
0.00127388
0.000658438
0.00136312
0.0028385
0.00377616
0.00474294
0.00607769
0.0078931
0.0101614
0.0127648
0.0154578
0.01763
0.0183645
0.0168548
0.0148657
0.0149892
0.0166439
0.0260868
0.0385917
0.0459661
0.0467564
0.0427954
0.036554
0.0298291
0.0235932
0.0182705
0.0139467
0.0105556
0.0079563
0.00599205
0.00451996
0.00343369
0.00265451
0.0021981
0.00176057
0.00129538
0.00058864
0.000935574
0.00181903
0.00245405
0.0029177
0.00349764
0.00457155
0.00601786
0.00780959
0.00968966
0.0110595
0.0112395
0.009801
0.00768342
0.00662408
0.00753741
0.0119108
0.0195415
0.0258151
0.0284948
0.0277378
0.0247182
0.0206658
0.0164634
0.0126411
0.00944704
0.00692266
0.00500818
0.00360715
0.00261885
0.00195808
0.00155453
0.00137972
0.00115958
0.00083083
0.000408005
0.00285072
0.00705185
0.0168124
0.0316238
0.0462093
0.054412
0.0545555
0.0491673
0.0418827
0.0348862
0.0290061
0.0243114
0.0206836
0.0179578
0.0159918
0.0146783
0.014016
0.0140493
0.0147601
0.0161383
0.0181928
0.0210452
0.024853
0.0298055
0.0360698
0.0436561
0.0518959
0.0588218
0.0607821
0.0547322
0.0408986
0.0244259
0.0111331
0.00435369
0.00208074
0.00804832
0.010722
0.0158506
0.0198247
0.0210753
0.0196794
0.0168334
0.013903
0.0117111
0.0101562
0.00905065
0.00821968
0.00759278
0.0071109
0.00675607
0.00650253
0.00637316
0.00638829
0.00653686
0.00681283
0.00719422
0.00770964
0.00837778
0.00925674
0.0104187
0.0120361
0.0143117
0.0174046
0.0206389
0.0226986
0.0224232
0.0191826
0.0140883
0.00889349
0.00618989
0.0112031
0.0125971
0.0159985
0.0167406
0.0146188
0.0109451
0.00774568
0.00622368
0.00598391
0.00582778
0.00563834
0.00546059
0.00530523
0.00517666
0.00508229
0.00501188
0.00498643
0.00499666
0.00503666
0.00512283
0.00523375
0.00538018
0.00555642
0.00576463
0.00599231
0.00619078
0.00646145
0.00773618
0.0107983
0.0147667
0.0176876
0.0179966
0.015438
0.0111203
0.00909584
0.0139336
0.0132111
0.0141784
0.011801
0.00810846
0.00652744
0.00655815
0.00664873
0.00624371
0.00600776
0.00583597
0.00567883
0.005573
0.00547245
0.00540039
0.00533598
0.00529609
0.00530568
0.00535722
0.00543266
0.005515
0.00562508
0.0057431
0.00591201
0.00609337
0.00633869
0.00676272
0.00671842
0.00668631
0.00755642
0.0111999
0.0143863
0.0147742
0.0120626
0.0112684
0.0175669
0.0136593
0.0124612
0.00872228
0.00616527
0.00563111
0.00545806
0.00513934
0.00485776
0.00489639
0.00498105
0.00499917
0.00501518
0.00500921
0.00500974
0.00500629
0.0050175
0.00502958
0.0050382
0.00506265
0.00508467
0.00511562
0.00513041
0.00514876
0.0050977
0.0050753
0.00530033
0.00561668
0.0057904
0.00617715
0.00780004
0.0114942
0.0138033
0.012765
0.0142316
0.0227441
0.015234
0.0128333
0.00857554
0.00655638
0.00618281
0.00601751
0.00578305
0.00567822
0.00572238
0.00578379
0.00576423
0.00575639
0.00573048
0.00571566
0.00569745
0.00569261
0.00570557
0.00573303
0.00577568
0.00581818
0.00587696
0.00592537
0.00599422
0.00599567
0.00602027
0.00613785
0.00634171
0.00650661
0.00680653
0.00767042
0.0114546
0.0145007
0.0142866
0.0184035
0.0296508
0.0177973
0.014674
0.00991097
0.00754232
0.00719535
0.00711106
0.00706949
0.00709341
0.00716416
0.0072378
0.00721279
0.00719445
0.00715809
0.00713462
0.00710986
0.00709856
0.00711137
0.00714523
0.00719361
0.00724354
0.00731167
0.00737053
0.00744732
0.00744278
0.0074557
0.00748228
0.00750639
0.00760133
0.0079021
0.00909324
0.013138
0.0164538
0.0165202
0.0238441
0.0383211
0.021116
0.0175082
0.012104
0.00884069
0.00844981
0.00843074
0.00852011
0.00860502
0.0086685
0.00873761
0.00870435
0.00868175
0.00864362
0.0086206
0.00859688
0.00858459
0.00859588
0.00862801
0.00867129
0.00871535
0.0087792
0.00883612
0.00891705
0.00891481
0.00893916
0.00892035
0.00882748
0.00886618
0.00921438
0.0112779
0.015775
0.0191823
0.0192189
0.030472
0.0486983
0.0250179
0.0211528
0.0150507
0.0104566
0.00997048
0.0100121
0.0101954
0.0103233
0.0103703
0.0104295
0.0103902
0.0103677
0.0103308
0.0103099
0.0102874
0.0102736
0.010282
0.01031
0.010345
0.0103782
0.0104308
0.0104771
0.0105553
0.0105549
0.0105925
0.0105338
0.0103546
0.010337
0.0107616
0.0140585
0.0190977
0.0224148
0.0221673
0.0381157
0.0605281
0.0293013
0.0254789
0.018802
0.0126277
0.011734
0.0118091
0.0120714
0.0122637
0.0123128
0.0123659
0.0123286
0.012313
0.0122825
0.0122668
0.0122471
0.0122325
0.012237
0.0122586
0.0122811
0.0122968
0.0123291
0.0123532
0.0124155
0.0124082
0.0124318
0.0122986
0.0120365
0.0119762
0.0125373
0.0173795
0.0229255
0.0259058
0.0251389
0.0464711
0.0732894
0.0337098
0.0303505
0.0235799
0.0162677
0.0137287
0.0137351
0.0140352
0.0142485
0.0143336
0.0144026
0.01439
0.0143954
0.0143789
0.0143718
0.014353
0.0143327
0.0143306
0.0143441
0.0143514
0.0143434
0.0143439
0.0143271
0.0143461
0.0143058
0.0142722
0.0141059
0.0137913
0.0137693
0.015299
0.0214598
0.0271288
0.0293982
0.0278923
0.0550813
0.0861678
0.0378868
0.0354437
0.0292335
0.0212103
0.015977
0.0156835
0.0158585
0.0159779
0.0160757
0.016193
0.0162362
0.0162802
0.0162875
0.0162935
0.0162719
0.0162389
0.0162272
0.016232
0.0162215
0.0161836
0.0161391
0.0160587
0.0159988
0.0158946
0.0158253
0.0157272
0.0155217
0.0157519
0.0196455
0.0263811
0.0314537
0.0325647
0.0301671
0.063349
0.0981291
0.0414164
0.0402153
0.0352017
0.0271351
0.0193729
0.0178904
0.0178567
0.0179642
0.0180971
0.0182765
0.0183839
0.0184719
0.0185044
0.0185237
0.0185028
0.0184637
0.0184471
0.0184452
0.0184151
0.0183422
0.0182445
0.0180869
0.0179324
0.0177412
0.0176031
0.0174783
0.0174559
0.0184424
0.0248567
0.0315204
0.0353602
0.0350172
0.0317271
0.0706092
0.108148
0.0439363
0.0440922
0.0407825
0.0337038
0.0252643
0.0205706
0.0203448
0.0205385
0.0208006
0.0211014
0.0213182
0.0214817
0.0215574
0.0216003
0.0215891
0.0215493
0.0215313
0.0215241
0.0214658
0.0213386
0.0211574
0.0208781
0.0205715
0.0202191
0.0199153
0.0196718
0.0198102
0.0237186
0.030618
0.0361713
0.038292
0.0364358
0.0324206
0.0762559
0.115438
0.0452292
0.0466193
0.0452057
0.0398411
0.0320848
0.0256016
0.0233188
0.0236628
0.0241732
0.0247502
0.0257445
0.0264775
0.0268275
0.0270288
0.0271043
0.027102
0.0271765
0.0272932
0.0272162
0.0268941
0.0263376
0.0253533
0.0241579
0.0233159
0.0227127
0.0222946
0.0245417
0.0298676
0.0358257
0.0395676
0.0398291
0.0366591
0.0322153
0.0798542
0.119587
0.0452644
0.0475825
0.0479282
0.0445471
0.0383526
0.0321715
0.0285888
0.0287635
0.0303049
0.0321459
0.0338694
0.0351335
0.0358078
0.0362059
0.0364083
0.036471
0.0365894
0.0366971
0.0364899
0.0359022
0.0349166
0.0332676
0.0312673
0.0292405
0.0277133
0.0275324
0.0306485
0.0352771
0.0394744
0.0412044
0.0398179
0.0357184
0.0311976
0.0812031
0.12058
0.0441803
0.0470329
0.0487742
0.0472422
0.0429105
0.0380001
0.034691
0.0350514
0.0373407
0.0400084
0.0422282
0.0438681
0.0448332
0.0454254
0.0457624
0.045886
0.0459826
0.0459857
0.0455601
0.0446414
0.0432283
0.0410977
0.0385575
0.0358343
0.0336332
0.0332547
0.0356271
0.0387832
0.041036
0.0409784
0.0383841
0.0338076
0.0295411
0.0803331
0.118714
0.0422256
0.0452251
0.047912
0.0478532
0.0452438
0.0417989
0.0394747
0.0401187
0.0428164
0.0457962
0.0483618
0.0502922
0.0515141
0.0522956
0.0527821
0.0529802
0.0530398
0.0528895
0.0522074
0.050952
0.0491394
0.0466199
0.0436811
0.0405901
0.0380304
0.0371666
0.0383926
0.0399777
0.0405329
0.0391442
0.0358516
0.0312106
0.0274504
0.077472
0.114465
0.0396915
0.0425158
0.0457279
0.0466989
0.045465
0.0433161
0.0419048
0.0428659
0.045646
0.0487324
0.0514664
0.0535579
0.0549495
0.0558753
0.0564942
0.0567589
0.0567707
0.0564601
0.0555337
0.0539907
0.0518709
0.0491013
0.0459426
0.0426962
0.039944
0.038632
0.0388095
0.0390781
0.0383736
0.0361598
0.0326222
0.0282247
0.0251238
0.0729365
0.108379
0.0368428
0.0392692
0.0426781
0.0442838
0.0440466
0.0429038
0.0421991
0.0433272
0.0460244
0.0490395
0.0517696
0.0538872
0.055343
0.0563488
0.0570579
0.0573606
0.0573113
0.056851
0.0557316
0.0539806
0.051669
0.0487983
0.0455958
0.0423688
0.0395807
0.0379445
0.0373229
0.0366378
0.0351254
0.0325236
0.0290742
0.025086
0.0227479
0.0670713
0.100935
0.033891
0.0357949
0.0391799
0.0411238
0.041563
0.041151
0.0409491
0.0421234
0.0446192
0.047437
0.0500332
0.0520682
0.0534968
0.0545215
0.0552695
0.0555706
0.0554439
0.0548407
0.0535905
0.0517129
0.0493241
0.0464738
0.043358
0.0402734
0.0375655
0.0357405
0.034578
0.0332795
0.031334
0.0286634
0.0254912
0.022011
0.0204498
0.060065
0.0925163
0.031009
0.0322968
0.0355541
0.0376443
0.0385282
0.0386389
0.0387926
0.039948
0.0421902
0.0447483
0.0471374
0.049026
0.0503692
0.0513678
0.0521058
0.0523632
0.0521375
0.0513944
0.0500365
0.0481171
0.0457286
0.0429792
0.0400357
0.0371533
0.0345823
0.0326728
0.031179
0.0295346
0.0274239
0.0248762
0.0220951
0.0191473
0.0184518
0.0521867
0.083237
0.0282974
0.0289387
0.0320035
0.0341457
0.0353262
0.0358259
0.0362508
0.0373804
0.0393825
0.0416807
0.0438477
0.0455704
0.046806
0.0477533
0.0484397
0.0486108
0.0482552
0.0473628
0.045902
0.0439577
0.0416357
0.0390273
0.0362768
0.0336132
0.0311987
0.0292647
0.0275828
0.0257764
0.0236801
0.0213789
0.0190123
0.0165716
0.0166842
0.0441423
0.0732847
0.0259099
0.0258254
0.0286601
0.0307962
0.0322026
0.0330183
0.0336856
0.0348293
0.0366591
0.0387511
0.0407346
0.0423117
0.0434472
0.044334
0.0449325
0.044969
0.0444379
0.043368
0.0417865
0.0398076
0.0375436
0.0350882
0.0325439
0.0300573
0.0277874
0.0258607
0.0240926
0.0222542
0.0202824
0.0182721
0.0162933
0.0143212
0.0150724
0.0364467
0.0631309
0.0238455
0.0230051
0.0255942
0.0276998
0.0292757
0.0303782
0.0313061
0.0325403
0.0343096
0.0362973
0.0381861
0.0396751
0.0407437
0.0415711
0.0420424
0.0418824
0.0411052
0.0398043
0.0380583
0.0360105
0.033771
0.0314267
0.0290507
0.0267413
0.0245751
0.0226634
0.0208804
0.0190953
0.0173029
0.0155803
0.01393
0.0124249
0.0135685
0.029454
0.0532399
0.0219938
0.0204929
0.0228241
0.0248929
0.026608
0.0279817
0.0292052
0.0306277
0.0324813
0.0345139
0.0364645
0.0379677
0.0390266
0.0398008
0.0400932
0.0396459
0.038511
0.0368911
0.0349065
0.0327323
0.0304648
0.0281769
0.0259115
0.0237264
0.0216605
0.0197851
0.0180296
0.0163413
0.0147414
0.01328
0.0119411
0.010861
0.0121588
0.0233173
0.0438678
0.0202528
0.0183126
0.0203351
0.0223669
0.024204
0.0258396
0.0273982
0.0291177
0.0312331
0.0335062
0.0357507
0.0374372
0.0385734
0.0393038
0.039342
0.0384689
0.0368007
0.0347289
0.0323973
0.0300179
0.0276569
0.0253657
0.0231544
0.0210469
0.0190587
0.0172357
0.0155492
0.0139921
0.0125886
0.0113629
0.0102995
0.00957975
0.0108284
0.0180021
0.0352049
0.0185691
0.016474
0.018116
0.0200764
0.0220257
0.0239171
0.025843
0.027965
0.0305492
0.0333117
0.0362029
0.0383244
0.0396846
0.0403897
0.0400598
0.0385443
0.0360625
0.0333454
0.0305178
0.0278362
0.0253093
0.022958
0.0207538
0.0186912
0.0167683
0.0150143
0.0134259
0.0120158
0.0108003
0.00978632
0.00896751
0.00853219
0.00955398
0.0134602
0.0273769
0.0169171
0.0149298
0.0161873
0.018027
0.02004
0.0221537
0.024464
0.0270761
0.0303267
0.033847
0.0378984
0.0408307
0.0426327
0.0433648
0.0425167
0.0400441
0.0363218
0.0327036
0.0291956
0.0261067
0.0233452
0.0208888
0.0186611
0.0166276
0.0147692
0.0131009
0.0116295
0.0103713
0.00933284
0.00851122
0.00790699
0.00767289
0.00832519
0.00965187
0.0204022
0.0152535
0.0136329
0.0145346
0.0161951
0.0182102
0.0204921
0.0231605
0.0263025
0.0303989
0.0349812
0.0408156
0.0451014
0.0476594
0.0485894
0.047059
0.0431731
0.0375615
0.032715
0.0283153
0.02472
0.0216712
0.0190853
0.0168235
0.0148195
0.0130339
0.0114665
0.0101244
0.00901925
0.00814875
0.00750333
0.0070795
0.00693929
0.00714051
0.00655105
0.014359
0.0135531
0.0125399
0.0131471
0.01457
0.0165024
0.0188641
0.0218098
0.0254366
0.0304482
0.0363095
0.0448395
0.0510271
0.054758
0.0561814
0.0538404
0.0479516
0.0395359
0.0331496
0.0276912
0.0235381
0.0201886
0.0174785
0.0151938
0.013233
0.0115337
0.0100818
0.00887829
0.00792716
0.00721732
0.00673067
0.00643538
0.0062706
0.00600911
0.00414517
0.00936539
0.0118168
0.0115947
0.012017
0.0131609
0.0149083
0.0172211
0.0202943
0.0242529
0.0300511
0.0372495
0.0492425
0.0577767
0.0630199
0.0656225
0.0627927
0.0543631
0.042031
0.0337543
0.0271385
0.0224329
0.0188137
0.0160134
0.013734
0.0118386
0.0102434
0.00892145
0.00786535
0.00706892
0.00650993
0.00614798
0.00589721
0.00561613
0.00494576
0.00243177
0.00559322
0.0100285
0.0106863
0.0111282
0.0119954
0.0134566
0.0155531
0.0185018
0.022432
0.0282984
0.0358007
0.0484979
0.057168
0.0656836
0.0666463
0.0659407
0.0571475
0.0429811
0.0335592
0.0262559
0.0212173
0.0174573
0.01464
0.0124114
0.0106112
0.00914087
0.00796439
0.00706359
0.0064164
0.00598207
0.00567872
0.00539378
0.00494969
0.00404844
0.00167815
0.00344021
0.00834394
0.00972637
0.010378
0.0110863
0.0122239
0.0139591
0.0165193
0.020045
0.0252431
0.0320477
0.0433782
0.0543945
0.0615368
0.0655042
0.0643733
0.056311
0.0422122
0.0324265
0.0249534
0.019822
0.0160656
0.0133105
0.0111833
0.0095143
0.00819733
0.00718503
0.00644574
0.00592633
0.00555474
0.00524253
0.00486586
0.00429544
0.00331992
0.00157329
0.00310332
0.00686458
0.00865812
0.00961947
0.0103508
0.0112463
0.0125855
0.0146063
0.0174936
0.0217078
0.0277437
0.0380868
0.0448142
0.050329
0.0598668
0.0630248
0.0541822
0.0402558
0.0304222
0.0231016
0.0180896
0.014491
0.0119033
0.00996139
0.00849099
0.0073855
0.00656069
0.00595122
0.00549948
0.00512852
0.00476038
0.0043094
0.00367535
0.00272899
0.00164154
0.00320762
0.0055787
0.00746145
0.00870568
0.00959655
0.0104338
0.0114733
0.0129705
0.0151859
0.0184055
0.023219
0.0284657
0.0335031
0.0392987
0.0446607
0.049847
0.0464291
0.0353197
0.0265109
0.0200193
0.0155736
0.012451
0.0102707
0.00872927
0.00756996
0.00667428
0.00598835
0.00545304
0.00502122
0.00463362
0.00422384
0.0037241
0.00306247
0.00211959
0.00162891
0.00319737
0.00420195
0.00612084
0.00748904
0.00856095
0.00948263
0.0103876
0.0114564
0.012964
0.0148924
0.0165997
0.0187364
0.0233088
0.0281178
0.0294618
0.0327375
0.0313816
0.0261026
0.0204701
0.0156934
0.0123824
0.0101855
0.0087101
0.00755493
0.00663106
0.00589341
0.0053193
0.00485882
0.00446088
0.0040713
0.0036379
0.00311193
0.00244064
0.00147092
0.00148098
0.00293038
0.00277469
0.00468297
0.0060517
0.00716007
0.0081023
0.00895627
0.00969615
0.0103543
0.010557
0.0106658
0.0112773
0.0152816
0.0196324
0.01841
0.0193304
0.0179747
0.0152042
0.012785
0.0107396
0.00923078
0.0080373
0.00701972
0.00618752
0.00552083
0.00498841
0.00455716
0.00418767
0.00383708
0.00346182
0.00302501
0.00249517
0.00183897
0.00099212
0.00127698
0.00260093
0.00192771
0.00342983
0.00464324
0.00565707
0.00646932
0.0070917
0.00750115
0.00769052
0.00758788
0.00780682
0.00850652
0.0117867
0.0159329
0.0149763
0.0150805
0.0134065
0.0107188
0.0086948
0.00758079
0.00672274
0.00600905
0.00538936
0.00487123
0.00444185
0.00408641
0.00378219
0.00350013
0.00320572
0.00286395
0.00245357
0.00196156
0.00134769
0.000727082
0.00110371
0.00243129
0.00187509
0.00265198
0.003792
0.00461789
0.0052858
0.00577698
0.00610481
0.00653743
0.00743657
0.00861421
0.00963476
0.0112206
0.0143417
0.0160698
0.0184017
0.0182027
0.0158051
0.0127831
0.0100334
0.00789361
0.006347
0.00530151
0.00464764
0.00413583
0.00372634
0.00338887
0.00309121
0.00279798
0.00247401
0.00210295
0.00164676
0.001151
0.000847298
0.00103595
0.00148328
0.00366244
0.00511126
0.00631838
0.00792968
0.00983339
0.0122802
0.0153899
0.0190324
0.0223505
0.024129
0.0224215
0.0176164
0.0133277
0.0198324
0.0366154
0.0521562
0.0593232
0.0581653
0.0518149
0.043398
0.0348801
0.027226
0.0207902
0.0157771
0.0119823
0.00915419
0.00706814
0.00554036
0.0044452
0.00350532
0.00293753
0.0023625
0.00164442
0.000635507
0.00283914
0.00702545
0.0169445
0.0315037
0.046095
0.0555218
0.0573976
0.0525661
0.0442974
0.0365076
0.0301935
0.0252929
0.0215991
0.0188605
0.0169055
0.0155979
0.0149219
0.0149502
0.0156672
0.0170302
0.0190591
0.0219015
0.0257432
0.0308614
0.0375244
0.0459024
0.0552638
0.0624246
0.0628621
0.0551976
0.0409344
0.0246322
0.0113932
0.00420934
0.00211781
0.00773916
0.00801592
0.0112024
0.0137176
0.0143157
0.0128788
0.0103104
0.00805223
0.00710698
0.00648924
0.00603373
0.00568879
0.00542357
0.00521772
0.00506445
0.00495197
0.00490715
0.00491665
0.00497506
0.00510307
0.00527309
0.00549776
0.00578198
0.00614699
0.00663005
0.00727211
0.00822615
0.0102483
0.0130269
0.0150381
0.0152137
0.0132986
0.0100377
0.00685294
0.00612473
0.00996444
0.00793616