/*--------------------------------*- C++ -*----------------------------------*\
| =========                 |                                                 |
| \\      /  F ield         | OpenFOAM: The Open Source CFD Toolbox           |
|  \\    /   O peration     | Version:  2.3.1                                 |
|   \\  /    A nd           | Web:      www.OpenFOAM.org                      |
|    \\/     M anipulation  |                                                 |
\*---------------------------------------------------------------------------*/
FoamFile
{
    version     2.0;
    format      ascii;
    class       volScalarField;
    location    "600";
    object      k;
}
// * * * * * * * * * * * * * * * * * * * * * * * * * * * * * * * * * * * * * //

dimensions      [0 2 -2 0 0 0 0];

internalField   nonuniform List<scalar> 
47964
(
0.00881477
0.0113265
0.0190582
0.0287313
0.0372295
0.0423335
0.0434676
0.0414453
0.0377492
0.033591
0.0296153
0.0261188
0.0231795
0.0208286
0.0190369
0.0178
0.0171547
0.0171859
0.0178784
0.0191752
0.0210465
0.0235064
0.0265907
0.0302852
0.0345358
0.0390802
0.0433283
0.0461273
0.0459703
0.0418565
0.0339713
0.0239221
0.0144414
0.00833106
0.00691026
0.0114058
0.0168291
0.0264987
0.0347331
0.0398289
0.0411531
0.0393749
0.0357981
0.0317872
0.0281518
0.0250477
0.0224884
0.020409
0.0187905
0.0175741
0.0167452
0.0163158
0.0163491
0.0168243
0.0177098
0.0189981
0.0207117
0.022911
0.0256245
0.02893
0.0328328
0.0372219
0.0414012
0.0440301
0.0437766
0.0398085
0.0323456
0.0230678
0.0135798
0.0089903
0.0160557
0.0230161
0.0329641
0.0394773
0.0417332
0.0400467
0.0359945
0.0311362
0.0268023
0.0235943
0.0211857
0.0193072
0.0178227
0.016673
0.0158048
0.015206
0.0148936
0.014929
0.0152912
0.0159482
0.016887
0.0181263
0.0197173
0.0217168
0.0242659
0.0276338
0.0321771
0.0375545
0.0423569
0.0451907
0.0444139
0.0393437
0.0306705
0.0199988
0.0131446
0.0198624
0.0266082
0.0357573
0.0399439
0.0389679
0.0338926
0.0280639
0.0233955
0.020289
0.0181991
0.0166559
0.0154465
0.0144744
0.0137168
0.0131395
0.0127477
0.0125679
0.0126023
0.0128362
0.0132899
0.0139396
0.0147855
0.0158595
0.0171815
0.0188553
0.0210776
0.0243291
0.029195
0.0353892
0.0415594
0.0441516
0.0418536
0.0346145
0.0238343
0.0167726
0.0239046
0.0296196
0.0371755
0.03883
0.0351688
0.0294728
0.0244402
0.0206828
0.0184685
0.0169413
0.0156729
0.0145954
0.0136596
0.012898
0.0122875
0.0118589
0.0116629
0.0117019
0.011963
0.0124661
0.0131635
0.0140312
0.0150942
0.0163321
0.0177947
0.0195234
0.0218915
0.0258113
0.0310569
0.0371231
0.0421368
0.0423926
0.0370624
0.0270843
0.0205811
0.0289446
0.0341458
0.0415663
0.0428845
0.0388086
0.0331088
0.0281622
0.0244822
0.0222917
0.0206123
0.0191585
0.017954
0.0169497
0.0161642
0.0155654
0.0151666
0.0149955
0.0150252
0.0152491
0.0157116
0.0163906
0.0172802
0.0184172
0.0197968
0.0214776
0.023432
0.0258958
0.0297886
0.0349315
0.0408825
0.0461788
0.0466123
0.0413617
0.0312404
0.0250356
0.0348029
0.0395789
0.0473034
0.0487458
0.0446077
0.0385188
0.0332105
0.0292551
0.0268968
0.0250641
0.0235041
0.0222424
0.0212221
0.0204461
0.0198735
0.0194955
0.0193215
0.0193375
0.0195397
0.0199524
0.0205726
0.0214177
0.0225366
0.0239417
0.0257011
0.0277962
0.0304545
0.0346562
0.0401791
0.0464924
0.051756
0.051989
0.0464138
0.0358813
0.0299672
0.0412412
0.0455947
0.0538772
0.0557416
0.0517471
0.0450845
0.0392256
0.0348778
0.0323802
0.0304671
0.0288911
0.0276451
0.026664
0.0259293
0.0253966
0.0250438
0.0248717
0.0248731
0.0250464
0.0254011
0.0259417
0.0266995
0.027728
0.0290633
0.0307839
0.0329103
0.0356767
0.0402419
0.0462738
0.053096
0.0581625
0.057921
0.051775
0.040711
0.0351415
0.0479934
0.0519668
0.061043
0.0636519
0.0600995
0.0528035
0.0462791
0.0414854
0.0389466
0.0370575
0.0355537
0.0343804
0.0334698
0.0327871
0.0322929
0.0319596
0.0317846
0.0317685
0.0319118
0.0322072
0.0326609
0.0333101
0.0342037
0.0353959
0.0369691
0.0389939
0.0417269
0.0466514
0.0532423
0.0605855
0.0651782
0.0641418
0.0571869
0.0455015
0.0403016
0.0546927
0.0583792
0.068446
0.0721254
0.0693982
0.0616723
0.0544337
0.0491686
0.0467216
0.0449986
0.0436755
0.0426457
0.0418487
0.0412399
0.0407932
0.0404822
0.040302
0.0402643
0.0403719
0.0405948
0.0409392
0.0414425
0.0421409
0.0431016
0.0443993
0.0461569
0.0486891
0.0539496
0.0610911
0.068823
0.0724991
0.0702943
0.0623253
0.0499819
0.045139
0.0608935
0.0644482
0.0756504
0.080692
0.0791724
0.0718943
0.0640509
0.0583146
0.0560573
0.0546729
0.0536661
0.0528684
0.0522407
0.0517368
0.051354
0.0510734
0.0508881
0.0508247
0.050888
0.0510178
0.0512184
0.0515235
0.0519478
0.0525664
0.0534321
0.0547308
0.0569475
0.0625139
0.0700575
0.0774367
0.079694
0.0759499
0.0668299
0.0538581
0.0493165
0.0661044
0.0697116
0.0821058
0.0888004
0.0892114
0.0836818
0.0758542
0.0700282
0.0679326
0.0669509
0.0663402
0.0658391
0.0654202
0.0650421
0.064732
0.0644856
0.064292
0.0641975
0.0642091
0.0642242
0.0642462
0.0643019
0.0643808
0.0645664
0.0649056
0.0656798
0.0676092
0.0730805
0.0803844
0.0859503
0.0861179
0.0805323
0.0702768
0.0568177
0.0525023
0.0698879
0.0737269
0.087225
0.0956615
0.0985402
0.0958097
0.089204
0.0838262
0.0820997
0.0817274
0.0817027
0.0816532
0.0815477
0.0813622
0.0811636
0.0809633
0.080753
0.080616
0.0805542
0.0804105
0.0801839
0.0798863
0.0794778
0.0790466
0.0786555
0.0786935
0.0801186
0.0849584
0.0909738
0.0935112
0.09101
0.0834879
0.0723109
0.0586091
0.0544362
0.0719634
0.0761691
0.090528
0.100482
0.105888
0.106289
0.102774
0.098603
0.0976147
0.0981156
0.098882
0.0994543
0.0997924
0.0998984
0.0998728
0.0997541
0.0995372
0.0993409
0.0991572
0.098777
0.0981944
0.0974019
0.0963401
0.0950936
0.0937532
0.0927862
0.0933333
0.0967874
0.0995683
0.098808
0.0936025
0.0844082
0.0727291
0.0590934
0.0549864
0.07226
0.0768937
0.0917671
0.102754
0.110333
0.113803
0.113781
0.112307
0.112464
0.114016
0.115663
0.116762
0.11749
0.117916
0.118094
0.118081
0.117863
0.117542
0.117104
0.116371
0.115349
0.114014
0.112362
0.110409
0.108082
0.105931
0.105186
0.105713
0.104902
0.100967
0.0934639
0.083162
0.0715255
0.0582655
0.0541712
0.0709115
0.075951
0.0909686
0.102367
0.11145
0.117422
0.12042
0.121779
0.123467
0.125838
0.128018
0.12971
0.130905
0.131709
0.132134
0.132253
0.132036
0.131568
0.130823
0.129671
0.128138
0.126186
0.123855
0.121111
0.118035
0.114861
0.112379
0.110026
0.106152
0.0996746
0.0906102
0.0799238
0.0688798
0.0562402
0.0521478
0.068201
0.0735511
0.0883921
0.0995942
0.109393
0.117044
0.122289
0.125838
0.128901
0.132071
0.13481
0.137046
0.138682
0.139838
0.140496
0.140733
0.140502
0.139871
0.138797
0.137213
0.135162
0.132607
0.129621
0.126135
0.122298
0.118128
0.114084
0.109478
0.10336
0.0952277
0.0854624
0.0751049
0.0650968
0.053217
0.0491741
0.0644876
0.0699972
0.0844368
0.0949637
0.104755
0.113241
0.11989
0.124934
0.129047
0.132849
0.136045
0.138693
0.140667
0.142086
0.142913
0.143219
0.142942
0.142132
0.140749
0.138756
0.136239
0.133163
0.129626
0.125539
0.121064
0.116088
0.110849
0.104716
0.097246
0.0883625
0.0786883
0.0692326
0.0605266
0.0493947
0.0456007
0.0601378
0.0656194
0.0795394
0.0890968
0.0983359
0.106956
0.114271
0.120171
0.12496
0.129171
0.132666
0.135562
0.13774
0.139305
0.140212
0.140518
0.14015
0.139145
0.137482
0.135138
0.132231
0.128751
0.124806
0.120298
0.115374
0.109859
0.103859
0.0968929
0.0888672
0.0799932
0.0710159
0.0628286
0.0554829
0.0450295
0.0416988
0.0555296
0.0606712
0.0740915
0.0825733
0.0909287
0.0991938
0.106628
0.112894
0.118036
0.122453
0.126096
0.129097
0.131357
0.13296
0.133858
0.134092
0.133585
0.132364
0.130435
0.127813
0.12461
0.12082
0.116603
0.111845
0.106665
0.100871
0.0945127
0.0872771
0.0793075
0.0709874
0.0630878
0.0563167
0.0500768
0.0405543
0.0376542
0.0508643
0.0554148
0.0683912
0.0758511
0.0831845
0.0908167
0.098028
0.104341
0.109614
0.114103
0.117798
0.120814
0.123074
0.124639
0.125462
0.125563
0.12487
0.123412
0.121217
0.118342
0.11491
0.11094
0.106545
0.101638
0.0963544
0.0904894
0.0840819
0.0769778
0.0694721
0.0620327
0.055383
0.049909
0.0446988
0.0360822
0.0336456
0.0462514
0.0502556
0.0624756
0.06923
0.0755587
0.0824484
0.0892679
0.0954622
0.100755
0.105264
0.10898
0.111987
0.114218
0.115712
0.11642
0.116345
0.115428
0.113703
0.111232
0.108107
0.104463
0.100346
0.0958594
0.0909358
0.0856228
0.0797883
0.0735372
0.0668143
0.0600046
0.0535777
0.0481346
0.0439372
0.0394786
0.0317196
0.0297013
0.041788
0.0452496
0.0566292
0.0628006
0.0683133
0.0744686
0.080849
0.0868729
0.0921645
0.0967137
0.100482
0.103512
0.105735
0.107164
0.107748
0.107472
0.106296
0.104272
0.1015
0.0981043
0.0942374
0.0899693
0.0853944
0.0804675
0.075217
0.0695448
0.0635472
0.0572978
0.0512592
0.0459163
0.0417035
0.0384411
0.0344784
0.0275415
0.0258466
0.0374113
0.0404245
0.0509516
0.0567086
0.0614823
0.067054
0.0730193
0.0788909
0.0842201
0.0888804
0.0927784
0.0959099
0.0981806
0.0995803
0.100054
0.0995665
0.0981055
0.0957454
0.0926339
0.0889317
0.0848102
0.0803622
0.075677
0.0707327
0.0655478
0.0600713
0.0544149
0.048759
0.0435724
0.0392661
0.0360349
0.0333835
0.0297462
0.0235936
0.0221233
0.0330714
0.0357769
0.0454447
0.0509672
0.0552426
0.0601855
0.0657812
0.0715778
0.0770422
0.0819119
0.0860432
0.0893821
0.0917818
0.0932083
0.0936028
0.0929076
0.0911408
0.088405
0.0849114
0.0808566
0.0764394
0.0717727
0.0669462
0.061961
0.0568394
0.0515813
0.0463266
0.041321
0.0369757
0.0335601
0.0310298
0.0287253
0.0253166
0.0199046
0.0185796
0.0287552
0.0312819
0.0400953
0.0454931
0.0495004
0.0539638
0.0592063
0.0649092
0.0705206
0.0756878
0.0801622
0.0838699
0.0865054
0.0880225
0.088387
0.0875042
0.0854233
0.0822772
0.0783619
0.073911
0.0691596
0.0642397
0.0592481
0.0542081
0.0491572
0.0441442
0.039335
0.034987
0.0314005
0.0286744
0.0265807
0.0244354
0.0212163
0.0165095
0.0152622
0.0244717
0.0269134
0.0348863
0.0402056
0.0441277
0.0482724
0.0531998
0.0587878
0.0645422
0.0700539
0.0749513
0.0790915
0.0821067
0.083789
0.0842
0.0831779
0.0807991
0.0772224
0.0728596
0.0679832
0.0628739
0.0576839
0.0525228
0.0474372
0.0424856
0.0377546
0.0334165
0.0296861
0.0267231
0.0244697
0.0225982
0.0205027
0.017484
0.0134854
0.0122102
0.0202525
0.02266
0.0298074
0.0350405
0.0389992
0.0429749
0.0476386
0.0530737
0.0589116
0.0647422
0.0700711
0.0746962
0.0780885
0.0800265
0.0806069
0.0795545
0.0769552
0.0729753
0.0681804
0.0628849
0.0574252
0.0519788
0.0466738
0.0415813
0.0367792
0.0323711
0.0285033
0.0253067
0.0228027
0.0208244
0.0190274
0.0169426
0.0141618
0.0108544
0.00946224
0.0161671
0.0185992
0.0248855
0.0299678
0.0340147
0.0379384
0.0423967
0.0476312
0.0534388
0.059469
0.065135
0.0701895
0.0738547
0.0760541
0.0770235
0.0761714
0.0735281
0.0692374
0.0640803
0.0584204
0.0526581
0.0470076
0.0416179
0.0365835
0.0319908
0.0279329
0.0244987
0.0217194
0.0195101
0.0176575
0.0158633
0.0138146
0.0113317
0.00863025
0.00711109
0.012349
0.0148592
0.0202132
0.0250237
0.0291284
0.033062
0.0373645
0.042345
0.0479572
0.0539388
0.0596642
0.0648524
0.0684612
0.0706409
0.0724169
0.0722417
0.0699676
0.0656413
0.0603089
0.0544232
0.0484609
0.0427001
0.0373127
0.0324136
0.0280793
0.0243666
0.0212916
0.0188004
0.016752
0.0149427
0.0131543
0.0112162
0.00910567
0.00685187
0.00533198
0.00909987
0.0116128
0.0159604
0.0203342
0.0243811
0.0283096
0.0324771
0.037153
0.0423899
0.0479862
0.0533324
0.058119
0.0608898
0.0622354
0.0657211
0.0671295
0.0658983
0.061951
0.0567209
0.0508165
0.0448005
0.0390519
0.0337634
0.0290638
0.0250029
0.0215897
0.0187767
0.016462
0.0144981
0.0127255
0.0110105
0.00928451
0.00750643
0.00560246
0.00442378
0.00717059
0.00917919
0.0125231
0.0161997
0.0199601
0.0237614
0.0277572
0.0320822
0.0367966
0.0416434
0.0460338
0.0494817
0.0500649
0.049606
0.0556177
0.0601069
0.0610517
0.0581703
0.0533879
0.0477011
0.0417758
0.0361476
0.0310241
0.0265441
0.022724
0.019534
0.0168915
0.0146854
0.012792
0.0111018
0.00953525
0.00801285
0.00644372
0.00479465
0.00391678
0.00630194
0.00770997
0.0102455
0.0130225
0.0162151
0.0196604
0.02335
0.0272408
0.0313052
0.0350883
0.0379801
0.0391115
0.035407
0.0321215
0.0413535
0.0510218
0.0553481
0.054335
0.0504258
0.0452118
0.0395233
0.0340925
0.029154
0.024862
0.0212128
0.0181606
0.0156181
0.0134876
0.0116708
0.0100811
0.00862061
0.00719715
0.005756
0.00432932
0.00374485
0.00595368
0.00692509
0.00901126
0.011161
0.0136137
0.0164605
0.0196437
0.0230118
0.0264564
0.029403
0.0311524
0.0309193
0.0300915
0.0338042
0.0363848
0.0454212
0.0516803
0.0518792
0.0486203
0.0437714
0.0382804
0.0329907
0.0281621
0.0239597
0.0203778
0.0173721
0.0148609
0.0127536
0.0109648
0.0093984
0.00796314
0.00659022
0.00526123
0.00411357
0.00377875
0.0060264
0.0066122
0.00832152
0.0102169
0.0121934
0.0144578
0.0170468
0.019827
0.022725
0.0253056
0.0276421
0.029503
0.0318766
0.0363594
0.0409591
0.0478417
0.0523213
0.0519929
0.0485099
0.0435274
0.0379472
0.03258
0.0276844
0.0234202
0.0197831
0.0167244
0.0141832
0.0120715
0.0102815
0.00871305
0.00730525
0.00599832
0.00482081
0.0039478
0.00382084
0.00613288
0.00633818
0.00770752
0.00938832
0.0112056
0.0131421
0.0154574
0.0181012
0.0210522
0.0239254
0.0266181
0.0288011
0.0313539
0.0350676
0.0401431
0.0472888
0.0514792
0.0511441
0.0476962
0.0427322
0.0371583
0.031754
0.0267999
0.0224488
0.0187608
0.0156928
0.0131482
0.0110405
0.00928789
0.00780971
0.00650745
0.00535085
0.00439916
0.0037184
0.0037532
0.00604552
0.00593838
0.00705557
0.0085256
0.0102623
0.0122006
0.0144221
0.0169724
0.0198058
0.0225245
0.0248769
0.0264
0.0280442
0.0304703
0.0351649
0.0428289
0.0474743
0.0478149
0.0450316
0.0405249
0.0352682
0.0300373
0.0252148
0.0210597
0.0175332
0.0145735
0.0121088
0.0100651
0.00837056
0.00695766
0.00576551
0.00476294
0.00399879
0.00340751
0.003564
0.00572469
0.00543227
0.00644109
0.00769099
0.00931204
0.0112224
0.0134079
0.0157789
0.0182693
0.0205031
0.0220807
0.0225782
0.0230773
0.0244799
0.0280069
0.0356279
0.0410573
0.0425008
0.0407379
0.0369928
0.0322618
0.0275521
0.023253
0.0194758
0.0162309
0.0134842
0.0111782
0.0092496
0.00763756
0.00629174
0.00517827
0.00429826
0.00368995
0.00310893
0.00329114
0.0052631
0.00503487
0.00605578
0.00712646
0.00860119
0.0103803
0.0123851
0.0144928
0.0165625
0.0182395
0.0191364
0.0187554
0.0182481
0.0189878
0.021071
0.0280616
0.0342329
0.0367859
0.0359551
0.0329262
0.0290801
0.0250887
0.0213167
0.0179362
0.0149977
0.0124929
0.0103806
0.00860644
0.00711471
0.00586439
0.00484485
0.00409773
0.00353487
0.00293404
0.0029997
0.00487256
0.00500542
0.00605454
0.00704822
0.00831521
0.00989797
0.0117135
0.0136372
0.0154934
0.0169128
0.0173793
0.0164134
0.0150952
0.0151786
0.0162762
0.0219615
0.0285131
0.0320385
0.0324047
0.0305477
0.0275003
0.0240146
0.0205387
0.01732
0.0144664
0.0120144
0.00995074
0.00823692
0.00682556
0.0056827
0.00478671
0.00422098
0.0036404
0.00296696
0.00278378
0.00496799
0.005906
0.00721091
0.00809273
0.00913239
0.0109172
0.0131128
0.015601
0.0180139
0.0196739
0.0198868
0.0181516
0.0154325
0.0139793
0.0152364
0.020671
0.0287546
0.0346192
0.0369753
0.0363175
0.0336315
0.0298471
0.0256496
0.0215076
0.0177119
0.0143963
0.0116017
0.00932203
0.00753024
0.00620327
0.00531863
0.00491204
0.00437457
0.00350275
0.00285697
0.00796839
0.00918157
0.0163858
0.0249684
0.0321515
0.0358518
0.0359148
0.0335093
0.0301119
0.0266574
0.0235708
0.0209534
0.0188133
0.0171218
0.0158482
0.014968
0.0145144
0.0145373
0.0150236
0.0159449
0.0172709
0.019032
0.0212635
0.0240019
0.0272569
0.030956
0.0347379
0.0377636
0.038598
0.0359923
0.0296383
0.0210191
0.0124488
0.00665712
0.0064597
0.0100273
0.0134925
0.0169934
0.0192033
0.0195558
0.0184427
0.0167135
0.0150693
0.0138753
0.0130396
0.0124254
0.0119443
0.0115612
0.0112552
0.0110247
0.0108579
0.0107912
0.0108137
0.0109121
0.0111121
0.0113771
0.01172
0.0121419
0.0126628
0.0133138
0.0141751
0.015385
0.0170595
0.0189178
0.0203329
0.0205973
0.0190507
0.0159261
0.0120596
0.00841724
0.0125009
0.0145274
0.0163489
0.0163444
0.0148452
0.0127943
0.0112
0.0105492
0.0105269
0.0105671
0.0105375
0.0104847
0.0104254
0.0103679
0.0103271
0.0102929
0.0102955
0.0103186
0.0103512
0.0104214
0.0104976
0.0105896
0.0106823
0.0107717
0.0108345
0.0108191
0.0108458
0.0113376
0.0127786
0.0148611
0.0166636
0.0172666
0.0161597
0.0135335
0.0108795
0.0144574
0.0147736
0.0149338
0.0132849
0.0112427
0.0104978
0.0107023
0.0109025
0.0106239
0.0106498
0.0107292
0.0107698
0.0108201
0.0108352
0.0108499
0.0108467
0.0108508
0.0108803
0.0109219
0.0109699
0.0109985
0.0110248
0.0110142
0.0109982
0.0109216
0.0108603
0.011077
0.0108602
0.0106205
0.010939
0.0127995
0.0147248
0.0153476
0.014024
0.0125494
0.0168724
0.0149679
0.0137865
0.0114706
0.0100339
0.00979154
0.00988947
0.0100774
0.0105066
0.0112445
0.0118937
0.0123092
0.0126302
0.012858
0.0130474
0.0131926
0.0133186
0.0133628
0.0133154
0.0132521
0.0131467
0.0130062
0.0127782
0.0124615
0.0119042
0.0111841
0.0105914
0.0102501
0.0100369
0.010092
0.0109237
0.0129705
0.0145822
0.0143963
0.0146628
0.0200429
0.0159054
0.0140919
0.011767
0.0108612
0.0110433
0.0116983
0.0127761
0.0141001
0.0151424
0.0158898
0.0162917
0.0165994
0.0167982
0.0169617
0.0170731
0.0171598
0.017207
0.0172074
0.0171884
0.0171246
0.0170373
0.0168559
0.0166
0.0160186
0.0151291
0.0137844
0.0125189
0.0116746
0.0112767
0.0114483
0.0132174
0.0150079
0.0153336
0.0174039
0.0239188
0.0174242
0.0153085
0.013034
0.0122868
0.0128755
0.0141465
0.0160545
0.0179781
0.0192341
0.0200692
0.0204767
0.0207665
0.02094
0.0210794
0.0211684
0.0212318
0.0212722
0.0212829
0.0212705
0.021213
0.0211317
0.0209506
0.0206745
0.0199997
0.0189238
0.0170866
0.0150831
0.0136702
0.0128907
0.0129167
0.0145002
0.0162181
0.0167099
0.020684
0.0283796
0.0193129
0.0170164
0.0147036
0.0138662
0.0147502
0.0164789
0.0189427
0.0212079
0.0225545
0.0234161
0.0238167
0.024096
0.0242608
0.0243938
0.0244769
0.0245306
0.0245618
0.0245648
0.0245372
0.0244612
0.0243606
0.0241602
0.023863
0.0231373
0.0219662
0.019831
0.0173478
0.0155411
0.014506
0.0146729
0.0162138
0.0178237
0.0183276
0.0243584
0.0332959
0.0214312
0.0190302
0.0166108
0.01549
0.0165605
0.0186161
0.0214642
0.0239674
0.0253509
0.026208
0.0266045
0.0268835
0.0270499
0.0271834
0.027265
0.0273121
0.0273337
0.0273242
0.0272759
0.0271729
0.0270409
0.0268084
0.0264837
0.0257317
0.0245045
0.0221398
0.019323
0.0172466
0.0160597
0.0165326
0.0181348
0.0196195
0.0200399
0.0282781
0.0384904
0.0236585
0.0212365
0.0186945
0.0171532
0.0181858
0.0204077
0.0234784
0.0261623
0.0275685
0.0284044
0.028807
0.0290975
0.0292773
0.0294199
0.0295066
0.0295525
0.0295658
0.0295409
0.0294666
0.0293288
0.0291535
0.028876
0.0285116
0.0277458
0.026463
0.0238998
0.0208897
0.0186915
0.0174855
0.0184143
0.0201411
0.0214636
0.0217233
0.0322728
0.0437262
0.0258789
0.0235558
0.0209886
0.0191016
0.0195191
0.0216295
0.0245792
0.0272452
0.0286752
0.0295092
0.0299471
0.0302696
0.0304753
0.0306336
0.0307256
0.0307667
0.0307707
0.0307308
0.0306304
0.0304539
0.0302247
0.0298824
0.0294473
0.0286433
0.027287
0.0247216
0.0218542
0.0197959
0.0190037
0.0203804
0.0221735
0.0232434
0.0232691
0.0361452
0.0487092
0.0279564
0.0258675
0.0234269
0.021218
0.0205787
0.022272
0.0246807
0.02697
0.028321
0.0291465
0.0296256
0.0299817
0.030214
0.0303876
0.0304797
0.0305098
0.0305045
0.0304538
0.0303341
0.030127
0.0298508
0.0294496
0.0289453
0.028119
0.0267992
0.0245896
0.0222673
0.0206268
0.0208362
0.0224864
0.0241588
0.0248398
0.0245723
0.0396772
0.0531186
0.0297452
0.0279984
0.0258534
0.0234421
0.0217934
0.0227519
0.0246121
0.0265068
0.0277192
0.0284994
0.0289849
0.0293498
0.0295911
0.0297684
0.0298593
0.0298863
0.0298786
0.0298243
0.0296956
0.0294735
0.0291735
0.0287442
0.0282117
0.0274062
0.0261926
0.0243472
0.0225559
0.0215092
0.022748
0.0245582
0.0259321
0.0261175
0.0255409
0.0426536
0.0566754
0.0311212
0.0297742
0.0280966
0.0257892
0.0237144
0.0233412
0.0247662
0.0263593
0.0274634
0.0282102
0.0287018
0.0290721
0.0293178
0.0294949
0.0295839
0.0296086
0.029602
0.0295498
0.0294178
0.0291871
0.02887
0.0284185
0.0278614
0.0270683
0.0259381
0.0243655
0.0229837
0.0231745
0.0247689
0.0264253
0.0273235
0.0269619
0.0261137
0.0448983
0.0591942
0.0320061
0.0310502
0.0299423
0.0279887
0.0258692
0.0246701
0.0251773
0.026554
0.0276063
0.0283687
0.0290435
0.0295484
0.0298568
0.0300667
0.0301735
0.0302066
0.0302267
0.0302129
0.0300841
0.0298128
0.029407
0.0287828
0.0280073
0.0271342
0.0260327
0.0246545
0.0242034
0.0250956
0.0266217
0.0278677
0.02819
0.0273047
0.0262708
0.0462999
0.0606042
0.0323803
0.0317463
0.0312199
0.0297625
0.0278811
0.0265261
0.0263577
0.0274569
0.0286862
0.0297423
0.0305874
0.0312147
0.0315966
0.0318474
0.0319832
0.0320338
0.0320693
0.0320574
0.0319046
0.0315804
0.0310783
0.030296
0.0293278
0.0281784
0.0269242
0.0258415
0.025937
0.0268302
0.0280095
0.02871
0.0284567
0.0271384
0.0260353
0.0468198
0.0609394
0.0322799
0.0318594
0.031851
0.0309226
0.0294357
0.0282368
0.0279009
0.0288484
0.0301898
0.0314306
0.0323801
0.033085
0.033529
0.0338188
0.0339838
0.034049
0.0340817
0.0340506
0.0338508
0.0334523
0.0328519
0.0319632
0.0308775
0.0295892
0.0282455
0.0273123
0.02739
0.0280325
0.0287355
0.028877
0.0281319
0.0265123
0.0254657
0.0464848
0.0603092
0.0317815
0.0314526
0.0318552
0.0314071
0.0303516
0.0294201
0.0291969
0.0300536
0.0314313
0.0327183
0.0337521
0.0345275
0.035034
0.0353685
0.0355721
0.035659
0.0356865
0.0356225
0.0353601
0.034876
0.0341706
0.0331802
0.0319912
0.0306314
0.0292697
0.0283437
0.0282374
0.0285312
0.0287466
0.0284015
0.0272949
0.0255154
0.0246384
0.0453744
0.0588613
0.0309844
0.0306304
0.0313254
0.0312686
0.03061
0.0299624
0.0298748
0.0307088
0.0320515
0.0333537
0.034439
0.0352619
0.0358167
0.0361913
0.0364349
0.0365446
0.0365635
0.0364599
0.0361292
0.0355598
0.0347589
0.0336867
0.0324241
0.0310269
0.0296572
0.0286989
0.0283776
0.0283214
0.0281114
0.0273946
0.0260664
0.0242539
0.0236351
0.0435857
0.0567558
0.0299873
0.029512
0.0303917
0.0306297
0.030304
0.0299122
0.0299477
0.030752
0.0320371
0.0333191
0.0344166
0.0352572
0.0358377
0.0362408
0.0365176
0.0366441
0.0366482
0.0365011
0.0361062
0.0354609
0.0345828
0.033457
0.0321567
0.0307543
0.0293941
0.0283937
0.0278727
0.0275133
0.0269706
0.0260045
0.0245785
0.022823
0.0225409
0.0412167
0.0541264
0.0288776
0.0282101
0.0291887
0.0296378
0.0295784
0.0294027
0.0295403
0.0303064
0.031513
0.0327443
0.0338194
0.0346493
0.0352325
0.0356501
0.035948
0.03608
0.0360607
0.0358639
0.0354146
0.034706
0.0337735
0.0326203
0.0313125
0.0299307
0.0285947
0.0275569
0.0268685
0.0262682
0.0254881
0.0243806
0.0229463
0.0213231
0.0214241
0.0382938
0.0510732
0.0277352
0.0268102
0.027834
0.0284317
0.0285843
0.0285906
0.0288153
0.0295422
0.0306612
0.0318235
0.0328527
0.0336522
0.0342207
0.0346405
0.0349449
0.0350675
0.0350132
0.0347594
0.0342538
0.0335027
0.032532
0.031371
0.0300783
0.0287298
0.0274221
0.0263527
0.0255306
0.0247502
0.0238148
0.0226461
0.0212772
0.0198377
0.0203899
0.0348676
0.0475984
0.026617
0.0253897
0.0264137
0.0271241
0.0274511
0.0276181
0.0279257
0.0286256
0.0296644
0.0307554
0.0317304
0.0324905
0.0330355
0.0334486
0.0337446
0.0338404
0.033735
0.033413
0.032845
0.0320507
0.0310627
0.0299058
0.0286325
0.0273202
0.0260378
0.0249375
0.0240073
0.0230961
0.0220731
0.0209118
0.019651
0.0184251
0.0194164
0.0311854
0.0437244
0.0255956
0.0240095
0.0249952
0.0257906
0.0262752
0.0265952
0.0269944
0.0276928
0.0286762
0.0297114
0.0306412
0.0313651
0.0318864
0.0322876
0.0325596
0.0326073
0.0324282
0.0320205
0.0313772
0.0305316
0.0295209
0.0283747
0.0271302
0.0258337
0.0245663
0.0234323
0.0224163
0.0214184
0.020362
0.0192514
0.01812
0.0171393
0.0184631
0.0274465
0.0395861
0.0246763
0.0227106
0.0236255
0.0244877
0.0251143
0.0255915
0.0261056
0.0268407
0.0278115
0.0288254
0.0297385
0.0304431
0.0309493
0.0313366
0.0315666
0.031538
0.0312522
0.0307319
0.0299909
0.0290773
0.0280297
0.0268784
0.0256501
0.0243764
0.0231008
0.0219235
0.0208421
0.0197948
0.0187444
0.0177088
0.016712
0.0160209
0.0175087
0.0238128
0.0353351
0.0238085
0.0215283
0.0223318
0.023248
0.0240076
0.0246488
0.025307
0.0261272
0.0271444
0.028193
0.0291467
0.0298675
0.0303773
0.0307499
0.0309142
0.0307689
0.030326
0.0296517
0.0287786
0.0277706
0.0266635
0.0254848
0.0242494
0.022976
0.021693
0.0204778
0.0193446
0.0182726
0.0172512
0.0163052
0.0154756
0.015074
0.0165502
0.0203783
0.031056
0.0229281
0.0205084
0.0211286
0.022084
0.0229707
0.0237834
0.0246179
0.0255796
0.0267212
0.0278847
0.0289723
0.0297734
0.0303182
0.0306765
0.0307404
0.0304163
0.0297372
0.0288478
0.0277921
0.0266531
0.0254567
0.0242237
0.0229562
0.0216616
0.0203599
0.0191134
0.0179516
0.0168835
0.0159151
0.015076
0.0144285
0.0142828
0.0155705
0.01715
0.0268195
0.0220138
0.0196607
0.0200401
0.02099
0.0219976
0.0229902
0.0240313
0.0251945
0.0265587
0.0279469
0.0293208
0.0303039
0.0309404
0.0312859
0.0311956
0.0305947
0.0295524
0.0283586
0.0270503
0.0257338
0.0244127
0.0230974
0.0217747
0.0204428
0.0191168
0.0178496
0.0166824
0.015643
0.0147481
0.0140338
0.0135764
0.0136272
0.0145567
0.0141281
0.0226798
0.0210385
0.0189703
0.019102
0.0199892
0.0210831
0.0222479
0.0235218
0.0249449
0.0266375
0.0283853
0.0302945
0.0316314
0.0324509
0.0327925
0.0324663
0.0314338
0.0298221
0.0281975
0.0265443
0.0249954
0.0235129
0.0220904
0.0206957
0.0193186
0.0179702
0.0166973
0.0155481
0.0145613
0.0137614
0.0131901
0.0129169
0.013074
0.0135001
0.0113185
0.0186423
0.0199639
0.0184149
0.0183314
0.0190932
0.0202204
0.0215309
0.0230409
0.0247663
0.0268989
0.0291755
0.0319426
0.0339062
0.0350586
0.0354317
0.0347558
0.0330563
0.0305611
0.0283404
0.0262337
0.0243977
0.0227227
0.0211772
0.0197041
0.0182839
0.0169231
0.0156641
0.0145582
0.0136502
0.0129699
0.0125552
0.012439
0.0125644
0.0123931
0.00874158
0.0147502
0.018762
0.017972
0.0177448
0.018324
0.0194073
0.0208058
0.0225228
0.0245595
0.0272212
0.0302111
0.0344028
0.0373672
0.0391265
0.0395534
0.0383533
0.0356155
0.031725
0.0287121
0.026044
0.0238807
0.0219984
0.0203295
0.0187849
0.0173346
0.0159798
0.01476
0.0137277
0.012929
0.0123914
0.0121299
0.0120877
0.0120449
0.0112337
0.00644284
0.0110934
0.0174141
0.0175733
0.0173515
0.0177179
0.018661
0.020048
0.0218869
0.0241765
0.0273534
0.0311857
0.0373121
0.041671
0.044356
0.0449708
0.0431855
0.0390355
0.0331818
0.0291615
0.025866
0.0233685
0.0212926
0.0195207
0.0179271
0.0164717
0.0151515
0.0140048
0.0130817
0.0124217
0.0120322
0.0118641
0.0117802
0.0114584
0.0100317
0.00451507
0.00786727
0.0158668
0.0171076
0.0171485
0.0173272
0.018035
0.0192673
0.0210552
0.0233985
0.0267408
0.0309826
0.0378847
0.0429603
0.0478997
0.0470842
0.0456656
0.0408876
0.0339076
0.0291779
0.0254705
0.0227488
0.0205538
0.0187304
0.0171301
0.015709
0.0144636
0.0134305
0.012649
0.0121312
0.0118312
0.0116626
0.0114365
0.0107745
0.0089404
0.00352588
0.00568991
0.0142699
0.0164836
0.0169895
0.0171742
0.0176264
0.018567
0.0200867
0.0222217
0.0252881
0.0294104
0.0361214
0.0433201
0.0481626
0.0480363
0.0458238
0.0409213
0.0336847
0.028626
0.0247732
0.0219661
0.0197507
0.0179445
0.0163961
0.0150631
0.0139414
0.013052
0.0124031
0.0119703
0.0116853
0.0114289
0.0109815
0.0100372
0.00800934
0.00337743
0.00531209
0.0127789
0.0156384
0.0167151
0.0171432
0.0174832
0.0181122
0.0192227
0.0209473
0.0234828
0.0273471
0.0339166
0.0396626
0.0424686
0.0449533
0.045233
0.0399356
0.0326693
0.0275224
0.023727
0.0209764
0.0188523
0.01715
0.0157268
0.0145341
0.0135576
0.0127945
0.0122294
0.0118167
0.0114644
0.0110537
0.0104153
0.00928894
0.00722496
0.00347442
0.00543045
0.0114127
0.01454
0.0161495
0.0169697
0.0174932
0.0179858
0.0187208
0.0199745
0.0218792
0.0250884
0.029048
0.0340916
0.03656
0.0363228
0.0380911
0.0359112
0.0300671
0.0254159
0.0220391
0.0195934
0.017737
0.0162607
0.0150473
0.014027
0.0131834
0.0125096
0.0119667
0.0115113
0.0110669
0.0105234
0.00973225
0.00847703
0.00631949
0.00345657
0.00541888
0.00976212
0.0131229
0.0150714
0.0163084
0.0171591
0.0178166
0.018426
0.0192612
0.0203085
0.0215997
0.0234053
0.028633
0.0304
0.0277201
0.0285915
0.0277099
0.0250091
0.0220945
0.019631
0.0177732
0.0163625
0.0152113
0.0142048
0.0133279
0.0125818
0.0119752
0.0114662
0.010995
0.0104813
0.00982688
0.00890564
0.00752411
0.00513306
0.00324399
0.00511286
0.00766196
0.0113355
0.0134998
0.0149795
0.0160607
0.016912
0.0175326
0.0180304
0.0180162
0.0178828
0.0183435
0.0230794
0.0248918
0.0212635
0.0209056
0.0199621
0.0185713
0.017443
0.016426
0.01543
0.014517
0.0136386
0.0128636
0.0122039
0.0116488
0.0111743
0.0107367
0.010275
0.00971299
0.00896627
0.0079279
0.00642464
0.00401919
0.00293881
0.00472208
0.00596466
0.00946181
0.0116621
0.0132206
0.0143125
0.0150444
0.015449
0.0155672
0.0151979
0.0150033
0.015316
0.0188975
0.0213051
0.0188476
0.0181734
0.0168979
0.0152641
0.0140836
0.013418
0.0128549
0.0123039
0.0117809
0.0113116
0.0108967
0.0105296
0.010187
0.0098281
0.0093935
0.0088097
0.00801109
0.00691446
0.0052954
0.00311129
0.00266655
0.00451445
0.00507443
0.00741481
0.00999492
0.0114125
0.0123883
0.012977
0.0132286
0.0132967
0.0134994
0.0139199
0.0143809
0.0163804
0.0185992
0.0185366
0.0194787
0.0189178
0.0172532
0.0154081
0.0137993
0.0125428
0.0116057
0.0108975
0.010374
0.00992928
0.00954248
0.00918557
0.00881762
0.00838065
0.00780261
0.00703316
0.00590962
0.00421768
0.00296441
0.00255627
0.00515486
0.00593237
0.00740854
0.00853333
0.00992854
0.01146
0.0132898
0.015448
0.0177982
0.019811
0.0208484
0.0198529
0.0169041
0.0140352
0.0182935
0.0275311
0.034854
0.0379779
0.0374821
0.0347017
0.0308338
0.0266542
0.0225963
0.0188779
0.015706
0.013074
0.010926
0.0091957
0.0078176
0.00675007
0.00576147
0.00512117
0.00442889
0.00347848
0.00292964
0.0079468
0.00915864
0.0164716
0.0249051
0.0320984
0.0363377
0.0371516
0.0350363
0.0312584
0.0274771
0.0242097
0.0215136
0.0193644
0.0176909
0.0164462
0.0155869
0.0151332
0.0151523
0.015633
0.016527
0.0178149
0.0195448
0.0217682
0.0245654
0.0279849
0.0320089
0.036225
0.0392903
0.0394737
0.0361961
0.0296556
0.0211373
0.0126419
0.00650915
0.0065362
0.00976886
0.0115453
0.013917
0.0153979
0.0154351
0.0143003
0.0126941
0.0114034
0.0108883
0.0105665
0.0103063
0.0100992
0.00992932
0.00979264
0.0096891
0.00960985
0.00959381
0.00960873
0.00964761
0.00975068
0.00987753
0.010037
0.0102271
0.0104541
0.0107394
0.0110829
0.0116003
0.0127385
0.0143918
0.0157954
0.0162562
0.0153383
0.013146
0.0105521
0.00835807
0.0115616
0.0114123
0.0119385
0.0115425
0.0105177
0.00957252