/*--------------------------------*- C++ -*----------------------------------*\
| =========                 |                                                 |
| \\      /  F ield         | OpenFOAM: The Open Source CFD Toolbox           |
|  \\    /   O peration     | Version:  2.3.1                                 |
|   \\  /    A nd           | Web:      www.OpenFOAM.org                      |
|    \\/     M anipulation  |                                                 |
\*---------------------------------------------------------------------------*/
FoamFile
{
    version     2.0;
    format      ascii;
    class       volScalarField;
    location    "600";
    object      nut;
}
// * * * * * * * * * * * * * * * * * * * * * * * * * * * * * * * * * * * * * //

dimensions      [0 2 -1 0 0 0 0];

internalField   nonuniform List<scalar> 
47964
(
0.00316258
0.00238997
0.00310017
0.00380647
0.004333
0.00462047
0.00468196
0.00457174
0.00436313
0.00411582
0.00386458
0.00362928
0.00341898
0.00324097
0.00309844
0.00299609
0.00294128
0.00294395
0.00300268
0.00310967
0.00325788
0.00344301
0.00366193
0.00390805
0.0041733
0.00443939
0.00467445
0.00482307
0.00481485
0.00459437
0.00413905
0.00347332
0.00269866
0.00204972
0.00280016
0.00239832
0.00145662
0.00182779
0.0020926
0.00224085
0.0022778
0.00222805
0.00212444
0.00200189
0.00188394
0.00177705
0.00168381
0.00160408
0.00153916
0.00148851
0.00145298
0.00143423
0.00143569
0.00145641
0.00149424
0.00154764
0.00161593
0.00169956
0.00179739
0.00190981
0.00203455
0.00216628
0.00228466
0.00235608
0.00234928
0.00224028
0.0020194
0.00170537
0.00130846
0.00212927
0.00284551
0.00170345
0.00203862
0.00223094
0.0022938
0.00224697
0.00213026
0.00198129
0.00183823
0.00172472
0.00163431
0.00156018
0.001499
0.00144984
0.00141159
0.00138459
0.0013703
0.00137192
0.00138846
0.00141798
0.00145912
0.00151171
0.00157666
0.00165467
0.00174909
0.00186653
0.00201413
0.00217593
0.00231088
0.00238693
0.00236632
0.00222716
0.00196642
0.00158787
0.00257465
0.0031649
0.00183156
0.00212323
0.00224409
0.0022165
0.00206712
0.001881
0.00171744
0.00159936
0.00151474
0.0014491
0.0013955
0.00135087
0.00131505
0.00128708
0.00126774
0.00125877
0.00126049
0.00127213
0.00129442
0.00132568
0.00136531
0.00141403
0.00147179
0.00154181
0.00163014
0.00175137
0.00191853
0.00211227
0.00228902
0.00235933
0.0022971
0.00208902
0.00173347
0.00290834
0.00347205
0.00193243
0.00216492
0.00221258
0.00210568
0.00192764
0.00175536
0.0016148
0.00152591
0.00146146
0.00140569
0.00135651
0.0013123
0.00127519
0.00124465
0.00122274
0.0012126
0.00121462
0.0012281
0.00125366
0.00128825
0.00133003
0.00137949
0.00143495
0.00149782
0.00156889
0.00166132
0.00180393
0.00197876
0.0021634
0.00230486
0.00231185
0.00216163
0.00184788
0.00322166
0.00382057
0.00207483
0.00228921
0.00232522
0.00221197
0.00204308
0.00188429
0.00175687
0.00167643
0.00161205
0.00155416
0.00150451
0.00146183
0.00142755
0.00140086
0.0013828
0.00137498
0.00137634
0.00138655
0.00140742
0.00143751
0.00147601
0.00152379
0.00157983
0.00164554
0.00171878
0.00180688
0.00193794
0.00209857
0.0022703
0.00241288
0.00242418
0.00228357
0.0019846
0.00355324
0.00418941
0.00223381
0.00244208
0.00247904
0.00237148
0.00220369
0.00204622
0.0019205
0.00184147
0.00177763
0.00172142
0.00167458
0.00163572
0.00160554
0.00158289
0.00156777
0.00156076
0.0015614
0.00156954
0.00158603
0.00161049
0.00164324
0.00168562
0.00173737
0.00180008
0.00187201
0.00195948
0.00209028
0.00225068
0.00242106
0.00255444
0.00256018
0.00241901
0.00212691
0.00388748
0.00456047
0.00239757
0.00260626
0.00265097
0.00255421
0.00238412
0.00222382
0.00209695
0.00202048
0.00195988
0.00190852
0.00186691
0.00183348
0.00180805
0.00178938
0.00177691
0.00177079
0.00177084
0.001777
0.00178954
0.00180848
0.0018347
0.00186971
0.0019142
0.00197005
0.00203695
0.00212084
0.00225244
0.00241536
0.00258729
0.00270792
0.00270229
0.0025549
0.00226553
0.00420973
0.00491966
0.00255963
0.00277417
0.00283283
0.00275264
0.00258015
0.0024155
0.00228698
0.0022159
0.00216149
0.00211718
0.00208195
0.00205419
0.00203313
0.00201775
0.00200731
0.00200181
0.0020013
0.00200581
0.00201507
0.00202922
0.00204928
0.00207659
0.00211247
0.00215891
0.00221724
0.00229362
0.0024252
0.00259085
0.00276375
0.00286659
0.00284371
0.00268511
0.00239512
0.00450823
0.00525181
0.00271296
0.00293757
0.00301549
0.00295793
0.00278843
0.00261968
0.00248976
0.00242702
0.00238185
0.00234657
0.00231874
0.00229697
0.0022802
0.00226782
0.00225916
0.00225412
0.00225307
0.00225608
0.0022623
0.00227187
0.00228579
0.00230498
0.0023311
0.00236593
0.00241231
0.00247759
0.00260801
0.00277526
0.00294565
0.0030233
0.00297697
0.00280315
0.00251027
0.00477112
0.00554154
0.00285049
0.0030883
0.00318955
0.00315938
0.00301066
0.00284169
0.00271146
0.00265846
0.00262543
0.00260114
0.00258174
0.00256637
0.00255396
0.00254449
0.00253753
0.00253293
0.00253135
0.00253292
0.00253615
0.00254113
0.00254869
0.00255916
0.00257435
0.00259547
0.00262682
0.00267949
0.00280739
0.00297195
0.00312455
0.00316977
0.00309441
0.00290269
0.00260579
0.00498702
0.00577377
0.00296461
0.00321737
0.00334597
0.0033537
0.0032481
0.00309246
0.00297133
0.00292653
0.00290531
0.00289203
0.00288109
0.00287191
0.00286359
0.00285676
0.00285132
0.00284704
0.00284494
0.0028452
0.00284553
0.00284602
0.00284725
0.002849
0.0028531
0.00286059
0.0028776
0.00291956
0.00303539
0.00318347
0.00329184
0.00329504
0.00318639
0.0029766
0.00267643
0.00514557
0.00593671
0.00304879
0.00331616
0.00347283
0.00352469
0.00347551
0.00335356
0.00325091
0.00321725
0.00320995
0.00320946
0.00320849
0.00320642
0.00320277
0.00319886
0.00319491
0.00319076
0.00318805
0.00318683
0.00318398
0.00317949
0.00317359
0.00316546
0.00315686
0.00314905
0.00314981
0.0031782
0.00327279
0.00338667
0.00343357
0.00338734
0.00324434
0.00301937
0.0027183
0.00523948
0.00602421
0.00309887
0.00337836
0.00355925
0.00365375
0.00366066
0.00359961
0.00352581
0.0035081
0.00351709
0.0035308
0.003541
0.00354702
0.0035489
0.00354844
0.00354633
0.00354248
0.00353898
0.00353571
0.00352892
0.0035185
0.00350427
0.00348512
0.0034625
0.00343801
0.00342024
0.00343031
0.0034932
0.00354303
0.00352948
0.00343525
0.00326217
0.00302809
0.00272951
0.00526589
0.00603662
0.00311358
0.0034014
0.00359926
0.00372964
0.00378783
0.00378748
0.00376286
0.00376549
0.00379137
0.00381867
0.00383676
0.0038487
0.00385568
0.00385858
0.00385838
0.00385481
0.00384955
0.00384238
0.00383033
0.00381348
0.00379135
0.00376378
0.00373092
0.0036914
0.00365449
0.0036416
0.00365072
0.00363669
0.00356784
0.0034327
0.003238
0.00300293
0.00271032
0.00522671
0.00598003
0.00309444
0.00338657
0.00359248
0.00374848
0.00384759
0.00389641
0.00391832
0.00394538
0.00398309
0.00401744
0.0040439
0.0040625
0.00407495
0.00408152
0.00408336
0.00408
0.00407276
0.00406122
0.0040433
0.00401932
0.0039886
0.00395159
0.00390757
0.00385762
0.00380541
0.00376406
0.00372445
0.00365829
0.00354492
0.00337989
0.00317433
0.00294687
0.0026628
0.00512818
0.00586462
0.00304515
0.00333827
0.00354349
0.00371372
0.00384139
0.00392652
0.0039831
0.00403128
0.00408055
0.00412264
0.0041567
0.00418143
0.00419882
0.00420868
0.00421223
0.00420877
0.00419931
0.00418315
0.00415922
0.00412801
0.00408881
0.00404251
0.0039878
0.00392667
0.00385914
0.00379252
0.00371517
0.00360986
0.00346494
0.00328248
0.00307715
0.0028648
0.00259024
0.00497981
0.00570273
0.00297067
0.00326272
0.00346014
0.00363414
0.00377847
0.00388782
0.00396876
0.00403356
0.00409255
0.00414147
0.00418159
0.00421124
0.00423243
0.00424473
0.00424928
0.00424516
0.00423311
0.00421247
0.00418254
0.00414443
0.00409738
0.00404259
0.00397836
0.00390681
0.00382568
0.00373835
0.00363347
0.00350147
0.00333771
0.0031497
0.0029544
0.00276241
0.00249548
0.00479546
0.00550704
0.00287628
0.00316669
0.00335155
0.00352104
0.00367211
0.00379561
0.00389238
0.00396918
0.0040355
0.00408972
0.00413412
0.0041672
0.00419081
0.00420442
0.00420902
0.00420351
0.00418839
0.0041633
0.00412766
0.00408301
0.00402894
0.00396672
0.00389443
0.0038139
0.00372162
0.00361857
0.00349511
0.00334723
0.00317571
0.00299221
0.00281445
0.00264481
0.00238267
0.00458571
0.00529184
0.0027657
0.00305632
0.00322652
0.00338583
0.00353636
0.00366648
0.00377268
0.00385764
0.00392915
0.00398718
0.00403435
0.00406949
0.00409425
0.00410806
0.00411165
0.00410387
0.00408507
0.00405519
0.00401422
0.00396362
0.00390286
0.00383415
0.00375511
0.00366713
0.00356614
0.00345191
0.00331715
0.00316207
0.00299161
0.00282025
0.00266461
0.00251266
0.00226117
0.00435764
0.00506467
0.00264319
0.0029364
0.0030924
0.00323844
0.00338374
0.00351552
0.00362696
0.00371747
0.00379282
0.00385374
0.00390278
0.00393911
0.00396407
0.00397713
0.00397873
0.00396775
0.0039445
0.00390928
0.00386264
0.00380622
0.00373989
0.00366505
0.00357966
0.00348538
0.00337764
0.00325586
0.00311528
0.00295951
0.00279657
0.00264243
0.00250844
0.0023739
0.00213286
0.00411916
0.00482956
0.00251714
0.00280653
0.00295435
0.00308643
0.00322408
0.00335477
0.00346921
0.00356408
0.00364295
0.0037067
0.00375749
0.00379474
0.00381947
0.00383115
0.00382991
0.00381478
0.00378617
0.00374481
0.00369183
0.00362908
0.00355684
0.00347642
0.00338596
0.00328556
0.00317164
0.00304487
0.00290235
0.00275047
0.002599
0.00246345
0.00235359
0.00223098
0.00199977
0.00387019
0.00459062
0.00238848
0.00267199
0.00281382
0.00293472
0.00306409
0.00319265
0.00330946
0.00340876
0.00349187
0.00355925
0.00361252
0.0036511
0.00367568
0.0036857
0.00368096
0.00366077
0.00362576
0.00357723
0.00351689
0.00344688
0.00336792
0.00328117
0.00318511
0.00307945
0.00296106
0.0028305
0.00268772
0.00254215
0.00240602
0.00229298
0.00220147
0.00208491
0.00186341
0.00361033
0.00434357
0.00225755
0.00253451
0.00267386
0.00278413
0.00290755
0.00303413
0.00315376
0.00325853
0.00334748
0.00342009
0.00347733
0.00351826
0.00354325
0.00355167
0.003543
0.00351691
0.00347435
0.00341743
0.00334844
0.00326993
0.00318303
0.00308885
0.00298624
0.00287471
0.002752
0.00261923
0.00247937
0.0023438
0.00222497
0.00213145
0.00205154
0.00193656
0.0017247
0.00334019
0.00408387
0.00212381
0.00239363
0.00253489
0.00263908
0.00275461
0.00287982
0.00300403
0.00311658
0.00321357
0.00329361
0.00335691
0.00340167
0.00342801
0.00343525
0.00342247
0.00338978
0.00333851
0.00327188
0.0031928
0.00310437
0.00300811
0.00290521
0.00279495
0.00267695
0.00255012
0.00241674
0.00228244
0.0021591
0.00205696
0.0019779
0.00190303
0.00178656
0.00158413
0.003061
0.00380806
0.00198592
0.00224834
0.0023949
0.00249815
0.00260835
0.00273211
0.00286067
0.00298176
0.00308907
0.00317906
0.00325175
0.00330245
0.00333128
0.00333817
0.00332146
0.00328173
0.00322073
0.00314316
0.00305259
0.00295284
0.00284588
0.00273308
0.00261425
0.00248948
0.00235913
0.00222692
0.00210023
0.00198968
0.00190135
0.00183062
0.00175519
0.0016355
0.00144272
0.0027743
0.003513
0.00184204
0.00209721
0.00225143
0.00235869
0.00246697
0.00258982
0.00272244
0.00285257
0.00297188
0.003074
0.00315776
0.00321739
0.00325018
0.00325815
0.00323831
0.00319167
0.00312023
0.0030308
0.00292762
0.00281546
0.00269676
0.00257329
0.00244553
0.00231438
0.00218172
0.00205255
0.0019346
0.00183552
0.00175642
0.00168792
0.00160775
0.00148469
0.00130391
0.00248146
0.00319584
0.00169023
0.00193855
0.00210184
0.00221739
0.00232767
0.00245072
0.00258675
0.0027253
0.00285699
0.00297224
0.00306877
0.00313767
0.00317637
0.00318787
0.00316699
0.00311482
0.00303321
0.00293187
0.00281571
0.0026907
0.00255993
0.00242578
0.00228962
0.00215335
0.00202019
0.00189566
0.00178621
0.00169554
0.00162032
0.00154883
0.00146152
0.00133621
0.00116982
0.00218446
0.00285537
0.00153131
0.00177128
0.00194376
0.00207084
0.00218703
0.00231196
0.00245053
0.00259563
0.00273816
0.00286564
0.00297475
0.00305143
0.00309653
0.00311621
0.00309892
0.00304467
0.00295451
0.00284234
0.00271392
0.0025766
0.00243444
0.00229063
0.00214762
0.00200829
0.0018766
0.00175746
0.00165477
0.00156835
0.00149203
0.0014142
0.00131972
0.00119526
0.0010431
0.00189372
0.00249554
0.00136871
0.00159637
0.00177619
0.00191634
0.00204164
0.00217042
0.00231055
0.0024589
0.00260774
0.00274265
0.00285942
0.0029379
0.0029843
0.00302158
0.00301792
0.00297004
0.00287675
0.00275743
0.00261943
0.00247178
0.00232022
0.00216892
0.00202152
0.00188151
0.00175271
0.00163839
0.00153956
0.00145328
0.00137255
0.0012878
0.00118915
0.00107145
0.000929438
0.0016398
0.00214223
0.00121
0.00141852
0.00160114
0.00175324
0.00188921
0.0020235
0.00216427
0.00231178
0.00245965
0.00259304
0.00270691
0.00277068
0.00280113
0.0028785
0.00290918
0.00288238
0.00279472
0.00267415
0.00253114
0.00237659
0.00221889
0.00206318
0.00191421
0.00177545
0.00164982
0.00153859
0.00144064
0.00135198
0.00126664
0.0011782
0.00108192
0.000972818
0.000840436
0.00149362
0.00190161
0.00107577
0.00125653
0.00142912
0.00158634
0.00173081
0.00187069
0.00201116
0.00215386
0.00229133
0.00240909
0.00249768
0.00251236
0.00250082
0.00264802
0.00275281
0.00277436
0.0027081
0.00259439
0.00245233
0.00229497
0.00213478
0.00197771
0.00182935
0.00169261
0.00156931
0.00145931
0.00136068
0.00126994
0.00118307
0.00109643
0.0010051
0.000901329
0.000777488
0.00140543
0.00178271
0.000985919
0.00113653
0.00128133
0.0014298
0.00157438
0.00171576
0.00185321
0.00198665
0.00210327
0.00218823
0.00222058
0.0021128
0.00201239
0.00228334
0.00253625
0.00264159
0.0026173
0.00252139
0.00238748
0.00223224
0.00207321
0.00191718
0.00177044
0.00163536
0.00151314
0.00140323
0.00130401
0.00121301
0.00112738
0.00104252
0.000952566
0.000851874
0.000738794
0.00137423
0.00173275
0.000934387
0.00106588
0.00118622
0.0013101
0.00144057
0.00157371
0.00170329
0.00182633
0.00192535
0.0019818
0.00197437
0.00194776
0.00206442
0.00214178
0.002393
0.00255256
0.00255747
0.00247584
0.00234914
0.00219686
0.00203943
0.00188428
0.00173802
0.00160285
0.00147992
0.00136879
0.00126803
0.00117575
0.00108853
0.00100197
0.000911518
0.000814439
0.00072015
0.00138044
0.0017433
0.000913034
0.00102427
0.00113494
0.00123987
0.0013501
0.00146601
0.00158104
0.00169264
0.00178617
0.00186681
0.00192862
0.0020047
0.00214103
0.00227242
0.00245594
0.00256835
0.00256027
0.00247303
0.00234259
0.00218728
0.0020267
0.00186824
0.00171834
0.00157929
0.00145208
0.00133722
0.00123366
0.00113852
0.00104809
0.000959693
0.00086962
0.000779605
0.000705492
0.00138811
0.00175864
0.000893915
0.000985761
0.00108795
0.00118859
0.0012872
0.00139599
0.00151066
0.00162916
0.00173678
0.0018319
0.00190554
0.0019882
0.00210265
0.00224967
0.0024417
0.00254759
0.00253929
0.0024522
0.00232109
0.00216442
0.00200085
0.00183815
0.00168233
0.00153794
0.00140658
0.0012875
0.0011798
0.00108211
0.000992276
0.000905775
0.000821347
0.000744731
0.000684687
0.00137577
0.00174607
0.000865263
0.000943149
0.00103676
0.00113746
0.00124024
0.00134843
0.0014628
0.00158019
0.00168516
0.00177097
0.00182438
0.00188034
0.00195998
0.00210557
0.00232371
0.00244649
0.00245525
0.00238272
0.00226034
0.00210866
0.00194601
0.00178296
0.00162945
0.00148677
0.00135549
0.00123556
0.00112648
0.00102729
0.000936583
0.000852577
0.000774912
0.000710033
0.00065544
0.00134064
0.0016991
0.00082757
0.000901143
0.000984704
0.00108352
0.00118948
0.00130015
0.00141044
0.00151766
0.00160777
0.00166848
0.00168717
0.00170572
0.00175679
0.00187909
0.00211938
0.00227515
0.0023148
0.00226628
0.00215959
0.00201678
0.00186377
0.0017122
0.00156697
0.00143049
0.00130385
0.00118713
0.00107988
0.000981278
0.000890636
0.000807992
0.00073614
0.000682063
0.000626065
0.0012883
0.00162916
0.000796724
0.000873773
0.000947875
0.00104134
0.00114398
0.00124958
0.00135173
0.00144503
0.00151642
0.00155326
0.00153772
0.00151678
0.00154722
0.00162988
0.00188092
0.00207748
0.00215355
0.00212909
0.00203744
0.00191475
0.0017785
0.00163936
0.00150376
0.00137507
0.001255
0.001144
0.00104166
0.000947094
0.000859856
0.000781546
0.000718763
0.000667576
0.0006082
0.00122994
0.00156755
0.00079439
0.000873684
0.000942657
0.00102388
0.00111709
0.00121523
0.00131122
0.00139761
0.00146023
0.00148024
0.00143851
0.00137954
0.00138334
0.00143249
0.00166397
0.00189599
0.00200979
0.00202124
0.00196247
0.00186201
0.00174001
0.00160916
0.00147771
0.0013505
0.00123074
0.00112006
0.00101905
0.000927649
0.000846432
0.000776843
0.000729492
0.000677467
0.000611603
0.00118484
0.00237425
0.0017258
0.00190695
0.00202019
0.00214603
0.00234639
0.00257154
0.00280492
0.00301403
0.00314985
0.00316685
0.00302553
0.00278973
0.00265513
0.00277195
0.00322869
0.00380801
0.00417834
0.00431818
0.00427959
0.00411829
0.00387968
0.00359654
0.00329337
0.00298866
0.00269444
0.00241883
0.0021682
0.00194872
0.0017687
0.00163774
0.00157389
0.00148529
0.00132907
0.00180048
0.00200461
0.0010759
0.0014373
0.00177423
0.00201333
0.00212603
0.0021279
0.0020554
0.00194842
0.00183326
0.00172386
0.00162533
0.00154009
0.00146923
0.00141353
0.00137372
0.00135274
0.00135381
0.00137626
0.00141783
0.00147561
0.00154902
0.00163731
0.00173955
0.00185376
0.00197555
0.00209274
0.00218198
0.00220596
0.0021302
0.00193304
0.00162788
0.00125279
0.000916131
0.00180489
0.00112436
0.0015281
0.00163967
0.00167412
0.00163313
0.00155554
0.00149351
0.00147
0.00147955
0.00150674
0.00153526
0.0015621
0.00158433
0.00160334
0.00161914
0.00163175
0.00164447
0.00164742
0.00163943
0.00163121
0.00161929
0.00160347
0.00158376
0.00155899
0.0015312
0.00150248
0.00148849
0.00150491
0.00156062
0.00163923
0.00170281
0.00170277
0.00162032
0.00147177
0.00103015
0.00125541
0.0015078
0.00150364
0.00143619
0.00135675
0.00134603
0.00145754
0.00160929
0.00166669
0.00172446
0.00177242
0.00181183
0.00184386
0.00186885
0.00188859
0.00190246
0.00191316
0.00191779
0.00191462
0.00190803
0.001895
0.00187587
0.00184833
0.00181149
0.00176304
0.00170169
0.00163844
0.00149539
0.00136098
0.00134605
0.0014129
0.00149095
0.00152236
0.00148233
0.00117117
0.00135008
0.00148688
0.00141564
0.00134598
0.00140297
0.00151949
0.00157187
0.00160899
0.00162693
0.00169909
0.00177525
0.00183824
0.00189069
0.00193078
0.00196185
0.00198438
0.00200082
0.00200809
0.002004
0.0019936
0.00197408
0.0019447
0.0019011
0.0018414
0.00176181
0.00167465
0.00163292
0.00157999
0.00151826
0.00142522
0.00131648
0.00135641
0.00143489
0.00146739
0.00125784
0.00145849
0.00147616
0.00137275
0.00135763
0.00146972
0.00153232
0.00161269
0.00177841
0.00204518
0.00232405
0.00255595
0.00272773
0.00286269
0.00297044
0.00305829
0.00312886
0.00318181
0.00319524
0.00316721
0.003122
0.00305924
0.0029761
0.00286437
0.00271445
0.0025019
0.00221809
0.00190478
0.00168352
0.00156578
0.0014839
0.00137684
0.00131727
0.00138645
0.00146124
0.00135964
0.00158963
0.00149458
0.00139265
0.00145315
0.00161932
0.00177523
0.00204678
0.00254028
0.00315118
0.00360624
0.00392884
0.00414414
0.00430802
0.00443178
0.00453019
0.00460456
0.00465537
0.00467042
0.00464827
0.00460372
0.00453622
0.00444519
0.00431551
0.00413737
0.00385171
0.00342179
0.00278615
0.00222417
0.00188526
0.00168144
0.00153782
0.00137264
0.00139795
0.00148117
0.00148128
0.00173654
0.0015353
0.00143735
0.00154269
0.00180143
0.00207358
0.00253281
0.00328132
0.00410087
0.00464752
0.00500836
0.00523192
0.00539476
0.00551314
0.00560517
0.0056723
0.00571541
0.0057268
0.0057054
0.00566044
0.00559106
0.00549663
0.00535966
0.00516552
0.00483675
0.00432285
0.00351173
0.00272768
0.0022126
0.00189258
0.00165131
0.00144032
0.00143872
0.00152116
0.00161485
0.00189155
0.00158973
0.00148845
0.00160755
0.00195737
0.00231736
0.00289891
0.00379038
0.00470421
0.00528161
0.00564781
0.00586504
0.00601903
0.00612855
0.00621245
0.00627212
0.00630869
0.00631646
0.00629445
0.00624899
0.00617891
0.00608366
0.00594542
0.00574738
0.00540453
0.00485799
0.00396778
0.00306829
0.00245171
0.00205528
0.00171811
0.00149984
0.00149052
0.001573
0.00175242
0.00204885
0.00165228
0.00154085
0.00164993
0.00206516
0.00247556
0.00311524
0.00406695
0.00500801
0.00557747
0.00592715
0.00613098
0.00627382
0.0063744
0.00645054
0.00650352
0.00653478
0.00653979
0.00651745
0.00647244
0.00640313
0.00630909
0.00617366
0.00598042
0.00564582
0.00510195
0.00418799
0.0032453
0.00258973
0.00215696
0.00174979
0.00154984
0.00154556
0.0016305
0.00188816
0.00220288
0.00171922
0.00159304
0.00167288
0.00209705
0.00253667
0.00317406
0.00410982
0.00502314
0.00555535
0.00587205
0.00605791
0.00618855
0.00628084
0.00635028
0.00639805
0.00642565
0.00642905
0.00640692
0.00636305
0.0062956
0.00620429
0.00607484
0.0058928
0.0055838
0.00506972
0.00418
0.00326295
0.00262551
0.0021948
0.00175596
0.00159254
0.00160049
0.00168946
0.00201712
0.00234793
0.00178804
0.0016454
0.00168139
0.00201862
0.00249766
0.00306552
0.00387402
0.0046887
0.00516298
0.00544147
0.00560909
0.00572839
0.00581317
0.00587663
0.00591971
0.00594399
0.00594641
0.00592539
0.00588377
0.00581936
0.00573189
0.00560935
0.00544001
0.00516153
0.00469529
0.00389936
0.0031168
0.00256143
0.0021245
0.00174198
0.0016311
0.00165394
0.0017471
0.00213471
0.00247811
0.0018566
0.00169908
0.00168964
0.00191032
0.00238552
0.00284655
0.00345697
0.00409719
0.00449044
0.00472157
0.0048651
0.00496932
0.00504435
0.00510061
0.00513836
0.00515902
0.00516091
0.00514224
0.00510521
0.00504753
0.00496908
0.0048606
0.00471315
0.00447704
0.00408447
0.00346015
0.00287501
0.00243092
0.00198891
0.001725
0.00167002
0.00170527
0.00180136
0.00223658
0.00258784
0.00192267
0.00175435
0.00170889
0.00182266
0.00220647
0.0026041
0.00305309
0.00352006
0.00382114
0.00399964
0.00411289
0.00419703
0.00425885
0.00430551
0.00433673
0.00435378
0.00435548
0.00434011
0.00430975
0.00426242
0.00419845
0.00411131
0.00399451
0.00381029
0.00350762
0.00305241
0.00262313
0.00225774
0.00187363
0.00172204
0.0017116
0.00175318
0.00185048
0.00231895
0.00267308
0.00198395
0.00180951
0.00174211
0.00177598
0.00200337
0.00238365
0.00271335
0.00304468
0.00326344
0.00339425
0.00347783
0.00354101
0.00358846
0.00362473
0.00364854
0.0036614
0.0036628
0.00365112
0.00362841
0.00359301
0.00354548
0.0034814
0.00339612
0.00326139
0.00304042
0.00271611
0.00239989
0.00203786
0.00180335
0.00173747
0.00175472
0.00179562
0.00189304
0.00237919
0.00273183
0.0020384
0.00186125
0.00178492
0.00176961
0.00187719
0.00213953
0.00244655
0.00268186
0.00283742
0.00292645
0.00294888
0.00296779
0.00299053
0.00301014
0.00302313
0.00303001
0.00302572
0.00301004
0.00299289
0.00297434
0.00295507
0.00294086
0.00292232
0.002842
0.00268542
0.00245379
0.00214828
0.00189774
0.00178041
0.00176646
0.00179569
0.00183036
0.00192809
0.00241604
0.00276418
0.00208473
0.00190625
0.00183027
0.00178962
0.00182418
0.00196842
0.00218707
0.00235886
0.00244386
0.00247666
0.0024861
0.00249596
0.00250926
0.00252123
0.00252863
0.00253227
0.00252969
0.00252039
0.00251059
0.00250009
0.00248958
0.00248308
0.00247577
0.00244393
0.00235418
0.0021829
0.00197548
0.00183652
0.00178869
0.00180038
0.00183035
0.00185575
0.00195544
0.00242957
0.00277181
0.00212264
0.0019423
0.00187197
0.00182164
0.0018173
0.00188838
0.00201959
0.00213688
0.00219675
0.00222226
0.00223459
0.00224572
0.00225675
0.002266
0.00227132
0.0022739
0.00227349
0.00226918
0.00226358
0.00225609
0.00224697
0.0022373
0.00222545
0.00219892
0.00213487
0.00201886
0.00189516
0.00182358
0.00181098
0.00183144
0.00185562
0.00187121
0.00197572
0.00242086
0.00275744
0.00215287
0.00196869
0.00190615
0.00185518
0.00183251
0.00186365
0.00194355
0.00202623
0.00207662
0.00210376
0.00212003
0.00213339
0.00214435
0.00215283
0.00215762
0.00216006
0.00216097
0.00215934
0.00215545
0.0021485
0.00213854
0.00212534
0.00210868
0.00208045
0.00202744
0.00194537
0.00186915
0.00183258
0.00183489
0.00185464
0.00187024
0.00187736
0.0019903
0.00239177
0.00272414
0.00217687
0.00198609
0.00193132
0.00188431
0.00185478
0.00186529
0.00191685
0.00197996
0.00202552
0.00205454
0.00207405
0.00208944
0.00210111
0.00210975
0.00211482
0.00211766
0.0021194
0.002119
0.00211545
0.00210786
0.00209628
0.00208001
0.00205951
0.00202922
0.00198176
0.00191878
0.00186748
0.00184731
0.00185342
0.00186787
0.00187453
0.00187575
0.0020011
0.00234416
0.00267497
0.00219667
0.00199612
0.00194781
0.0019067
0.00187642
0.00187691
0.00191278
0.00196439
0.00200707
0.00203743
0.00205922
0.00207612
0.00208862
0.00209775
0.00210344
0.00210687
0.00210915
0.0021092
0.00210526
0.00209655
0.00208321
0.00206448
0.00204109
0.00200913
0.00196462
0.00191223
0.00187338
0.00185951
0.00186381
0.00187129
0.00187002
0.00186877
0.00201023
0.00227956
0.00261227
0.00221452
0.00200093
0.00195709
0.00192239
0.00189447
0.00189076
0.00191791
0.0019624
0.00200309
0.00203421
0.00205739
0.0020752
0.00208834
0.00209796
0.0021043
0.00210829
0.00211085
0.00211084
0.00210629
0.0020963
0.0020813
0.00206068
0.00203521
0.00200197
0.00195895
0.00191223
0.001879
0.00186606
0.00186596
0.00186639
0.00185899
0.00185911
0.00202003
0.00219725
0.00253753
0.00223263
0.00200301
0.00196111
0.00193263
0.00190862
0.00190398
0.00192637
0.00196623
0.00200544
0.00203686
0.00206072
0.00207894
0.00209245
0.00210242
0.00210924
0.00211362
0.0021162
0.00211578
0.00211044
0.00209943
0.00208293
0.00206082
0.00203377
0.00199944
0.00195699
0.00191297
0.0018815
0.00186668
0.00186126
0.00185543
0.00184406
0.00184976
0.00202784
0.00209665
0.00244969
0.00225328
0.00200484
0.00196203
0.00193918
0.00191984
0.00191617
0.00193612
0.00197291
0.00201099
0.00204244
0.00206656
0.00208484
0.00209847
0.00210861
0.00211567
0.00212022
0.00212255
0.00212146
0.00211519
0.0021032
0.00208571
0.00206245
0.00203391
0.00199847
0.00195575
0.00191251
0.00188057
0.00186251
0.00185177
0.00184094
0.00182801
0.00184373
0.00203365
0.00198285
0.00234788
0.00227565
0.00200891
0.00196191
0.00194387
0.0019295
0.00192795
0.00194691
0.00198167
0.00201885
0.00205024
0.00207439
0.00209255
0.00210615
0.0021163
0.00212344
0.00212794
0.00212978
0.0021278
0.00212048
0.00210754
0.00208913
0.00206511
0.00203554
0.00199833
0.00195466
0.00191087
0.00187709
0.00185525
0.00183978
0.00182549
0.00181365
0.00184609
0.00203549
0.00186019
0.00223402
0.00229824
0.00201779
0.00196274
0.00194833
0.001939
0.00194032
0.00195921
0.00199254
0.00202896
0.00206024
0.00208437
0.00210233
0.00211585
0.00212595
0.00213309
0.00213737
0.0021385
0.00213546
0.00212703
0.0021131
0.0020938
0.00206896
0.00203828
0.00199985
0.00195434
0.0019087
0.00187235
0.00184679
0.00182753
0.00181154
0.00180447
0.00185919
0.00203337
0.00173269
0.00211066
0.00231957
0.00203545
0.00196652
0.00195406
0.00194952
0.00195415
0.00197362
0.00200593
0.00204159
0.00207268
0.00209677
0.00211459
0.00212804
0.00213815
0.0021453
0.00214915
0.00214925
0.00214497
0.00213538
0.00212049
0.00210029
0.00207449
0.00204246
0.00200244
0.0019553
0.00190753
0.001868
0.00183889
0.00181696
0.00180176
0.00180508
0.00188292
0.0020275
0.00160287
0.00197874
0.0023361
0.00206707
0.00197578
0.00196243
0.00196203
0.00197018
0.00199077
0.00202243
0.0020575
0.00208857
0.00211311
0.00213106
0.00214468
0.00215486
0.00216175
0.00216444
0.00216265
0.00215664
0.00214573
0.0021299
0.00210884
0.00208197
0.00204837
0.00200649
0.00195751
0.00190761
0.00186526
0.00183352
0.00181086
0.00180021
0.00181916
0.00191654
0.00201503
0.00147044
0.00183883
0.00234877
0.00211174
0.00199518
0.00197506
0.00197725
0.00198893
0.0020112
0.00204287
0.00207806
0.00211015
0.00213723
0.00215658
0.00217105
0.00218108
0.00218635
0.00218562
0.00217958
0.00217058
0.00215792
0.00214111
0.0021193
0.00209139
0.00205612
0.00201228
0.00196148
0.00190982
0.00186558
0.00183288
0.00181251
0.00181122
0.00184987
0.00195882
0.00199612
0.00133462
0.00169096
0.00235476
0.0021694
0.00202875
0.00199484
0.00199624
0.00201083
0.00203542
0.00206834
0.00210574
0.00214244
0.00217946
0.00220543
0.00222306
0.00223179
0.00223126
0.00222074
0.00220369
0.0021881
0.00217204
0.00215383
0.00213136
0.0021025
0.00206569
0.00202006
0.00196784
0.0019153
0.00187085
0.00183997
0.00182623
0.00183969
0.00189911
0.00200493
0.00197024
0.00119457
0.00153308
0.0023516
0.00223868
0.0020808
0.00202588
0.00202074
0.00203602
0.00206297
0.00209878
0.00214217
0.00219
0.00224987
0.0022941
0.00232103
0.00232533
0.00231023
0.00227792
0.00223788
0.00220957
0.00218746
0.00216718
0.00214426
0.00211487
0.00207701
0.00203023
0.00197756
0.00192585
0.00188404
0.0018593
0.00185791
0.00189076
0.00196702
0.00204745
0.00193585
0.00104981
0.00136369
0.00233756
0.00231815
0.00215552
0.00207407
0.00205411
0.00206527
0.00209332
0.00213414
0.00219026
0.00226232
0.00237558
0.00246276
0.00251615
0.00250621
0.00245889
0.00238076
0.00229116
0.00223817
0.00220452
0.00218055
0.00215733
0.00212811
0.00209023
0.00204368
0.00199257
0.00194481
0.00191032
0.00189783
0.00191472
0.00196743
0.00204343
0.00208227
0.00189009
0.000901271
0.00118263
0.00230966
0.00239712
0.00225486
0.00214674
0.00210225
0.0021005
0.0021244
0.00216903
0.00224081
0.00234981
0.0025445
0.00270493
0.00280976
0.00277364
0.00267306
0.00252266
0.00235761
0.00226743
0.00221877
0.00219089
0.00216882
0.00214165
0.00210603
0.0020626
0.00201703
0.0019786
0.00195817
0.00196451
0.0020015
0.00206052
0.00211789
0.00210404
0.00183131
0.000754483
0.00099593
0.00225936
0.00246488
0.00237832
0.00225262
0.00217541
0.00214816
0.00215648
0.00219659
0.00227419
0.00241317
0.00266346
0.00290552
0.00314378
0.00299376
0.00284621
0.00263287
0.00240746
0.00228317
0.00222377
0.00219517
0.00217797
0.00215673
0.00212787
0.00209303
0.00205973
0.00203832
0.0020386
0.00206423
0.00210595
0.00215568
0.0021824
0.00211087
0.00177693
0.000666727
0.000846969
0.00219642
0.00251417
0.00250317
0.00239446
0.00228749
0.00222265
0.0021982
0.00221713
0.00227999
0.00242911
0.00270708
0.00310504
0.00339256
0.00317038
0.00293575
0.00267638
0.00241919
0.00227438
0.00221349
0.00219078
0.00218529
0.00217726
0.00216348
0.00214633
0.00213395
0.00213388
0.00214798
0.00217605
0.00221236
0.0022424
0.00223054
0.00211086
0.00173904
0.000652539
0.000818363
0.00214099
0.00254216
0.00261402
0.00255536
0.00244612
0.00234593
0.00227684
0.00225744
0.00228626
0.00242605
0.00271828
0.00315929
0.00322522
0.00303795
0.00292175
0.00264914
0.00238613
0.00224091
0.00219324
0.00218915
0.00220736
0.00222384
0.00223462
0.00223904
0.0022399
0.00224564
0.00226175
0.00228514
0.00230649
0.00231001
0.00226551
0.00211289
0.00172152
0.000661843
0.000827431
0.00210128
0.00255005
0.00269624
0.00270069
0.00263959
0.00253754
0.00243184
0.00236458
0.00234076