/*--------------------------------*- C++ -*----------------------------------*\
| =========                 |                                                 |
| \\      /  F ield         | OpenFOAM: The Open Source CFD Toolbox           |
|  \\    /   O peration     | Version:  2.3.1                                 |
|   \\  /    A nd           | Web:      www.OpenFOAM.org                      |
|    \\/     M anipulation  |                                                 |
\*---------------------------------------------------------------------------*/
FoamFile
{
    version     2.0;
    format      ascii;
    class       volScalarField;
    location    "600";
    object      p;
}
// * * * * * * * * * * * * * * * * * * * * * * * * * * * * * * * * * * * * * //

dimensions      [0 2 -2 0 0 0 0];

internalField   nonuniform List<scalar> 
47964
(
77.8474
77.8447
77.8416
77.8387
77.8386
77.8431
77.8536
77.87
77.8894
77.9099
77.929
77.9461
77.9601
77.9712
77.9792
77.9844
77.9863
77.9863
77.9844
77.979
77.9709
77.9595
77.9452
77.9276
77.9077
77.8859
77.8648
77.8464
77.8336
77.8271
77.8257
77.8275
77.8308
77.8337
77.8361
77.8517
77.8466
77.841
77.8352
77.8322
77.834
77.8425
77.858
77.8767
77.8971
77.9159
77.9328
77.9466
77.9577
77.9657
77.9711
77.9731
77.9731
77.971
77.9655
77.9574
77.9461
77.932
77.9145
77.8948
77.8731
77.8526
77.8349
77.8239
77.8198
77.8209
77.8251
77.8307
77.8355
77.8396
77.8536
77.8461
77.8372
77.8279
77.8219
77.8219
77.8319
77.8534
77.8783
77.9043
77.9261
77.9449
77.9595
77.9712
77.9795
77.9853
77.9878
77.9877
77.9852
77.9794
77.9709
77.9591
77.9442
77.925
77.9027
77.8758
77.8492
77.825
77.8119
77.8088
77.8125
77.8196
77.8283
77.8358
77.8418
77.8521
77.8423
77.8301
77.8182
77.8127
77.8193
77.8432
77.8847
77.9205
77.9521
77.9742
77.9924
78.0053
78.0155
78.0226
78.0273
78.0291
78.029
78.0272
78.0223
78.0151
78.0047
77.9914
77.9732
77.9509
77.9192
77.8825
77.8392
77.8117
77.8011
77.8028
77.8114
77.823
77.8332
77.8408
77.8464
77.8349
77.8208
77.8081
77.8046
77.8176
77.8501
77.8977
77.9298
77.9587
77.979
77.9964
78.0093
78.0195
78.0268
78.0316
78.0335
78.0335
78.0315
78.0265
78.0191
78.0086
77.9953
77.9776
77.9565
77.9271
77.8944
77.8461
77.8113
77.7944
77.7936
77.8023
77.8152
77.8271
77.8358
77.837
77.8243
77.8094
77.7975
77.7971
77.8149
77.8524
77.9043
77.9376
77.9682
77.9894
78.0069
78.0197
78.0296
78.0364
78.0409
78.0425
78.0425
78.0409
78.0364
78.0295
78.0195
78.0065
77.9886
77.9668
77.9356
77.9013
77.8489
77.8096
77.7885
77.7847
77.792
77.8051
77.8179
77.8273
77.8229
77.8093
77.7935
77.7814
77.7821
77.8015
77.84
77.8936
77.9276
77.9594
77.9811
77.9991
78.0121
78.0222
78.0293
78.034
78.0359
78.036
78.0342
78.0297
78.0228
78.0127
77.9997
77.9816
77.9595
77.9273
77.8923
77.8384
77.7982
77.7758
77.771
77.778
77.7916
77.8051
77.815
77.8043
77.7905
77.7741
77.7613
77.7612
77.7797
77.817
77.871
77.9046
77.9366
77.9578
77.9754
77.9878
77.9976
78.0043
78.0089
78.0108
78.011
78.0094
78.0052
77.9989
77.9895
77.9773
77.96
77.9387
77.9067
77.8723
77.8179
77.7789
77.7575
77.7536
77.7612
77.7754
77.7893
77.7993
77.7819
77.7682
77.7514
77.7377
77.736
77.7521
77.7866
77.8395
77.871
77.9013
77.9206
77.9369
77.9483
77.9574
77.9636
77.9679
77.9697
77.97
77.9688
77.9651
77.9596
77.9513
77.9406
77.925
77.9059
77.876
77.8441
77.7909
77.7546
77.7357
77.7336
77.7423
77.7571
77.771
77.7809
77.7565
77.7433
77.7265
77.7118
77.7076
77.72
77.7496
77.7986
77.8262
77.853
77.8695
77.8838
77.8936
77.9017
77.9072
77.9112
77.9129
77.9133
77.9125
77.9096
77.9051
77.8982
77.8895
77.8762
77.8605
77.8345
77.8069
77.7576
77.7265
77.7115
77.7121
77.7221
77.7374
77.7511
77.7606
77.7293
77.717
77.7006
77.6851
77.6784
77.6866
77.7097
77.7523
77.775
77.7967
77.8094
77.8209
77.8286
77.8353
77.8399
77.8433
77.8449
77.8454
77.8451
77.8431
77.84
77.835
77.8288
77.8188
77.8074
77.7868
77.7643
77.7217
77.6974
77.687
77.6906
77.7018
77.7172
77.7304
77.7393
77.7015
77.6903
77.6747
77.6587
77.6493
77.6519
77.6653
77.6935
77.71
77.7261
77.7355
77.7444
77.7503
77.7557
77.7595
77.7624
77.7639
77.7646
77.7648
77.7637
77.7619
77.7586
77.7546
77.7477
77.7399
77.7251
77.7091
77.6813
77.6673
77.6631
77.6699
77.6822
77.6974
77.7098
77.7179
77.6743
77.6644
77.65
77.6342
77.6233
77.6217
77.6282
77.6447
77.6549
77.6649
77.6705
77.6762
77.68
77.6838
77.6866
77.689
77.6906
77.6916
77.6923
77.6923
77.6919
77.6906
77.6892
77.6858
77.682
77.6735
77.6642
77.6486
77.6421
77.6428
77.6517
77.6643
77.6788
77.69
77.6974
77.6487
77.64
77.6271
77.6122
77.6007
77.596
77.5978
77.6064
77.6117
77.6169
77.6197
77.6227
77.6247
77.6271
77.629
77.6309
77.6324
77.6337
77.635
77.636
77.6371
77.6377
77.6385
77.6381
77.6376
77.6341
77.6302
77.6229
77.6218
77.6259
77.636
77.6484
77.6618
77.6718
77.6783
77.6251
77.6176
77.6063
77.5927
77.5814
77.575
77.5735
77.5773
77.5794
77.5815
77.5821
77.5833
77.584
77.5852
77.5864
77.588
77.5895
77.5911
77.593
77.595
77.5974
77.5996
77.6022
77.604
77.6059
77.606
77.6056
77.6036
77.6062
77.6125
77.6228
77.6346
77.6467
77.6555
77.6612
77.604
77.5975
77.5878
77.5755
77.5649
77.5577
77.5544
77.555
77.5552
77.5554
77.5548
77.5548
77.5547
77.5553
77.5561
77.5574
77.559
77.561
77.5635
77.5664
77.5697
77.5731
77.5769
77.5803
77.5838
77.5862
77.5882
77.5897
77.5945
77.6019
77.612
77.6228
77.6336
77.6413
77.6462
77.5852
77.5797
77.5713
77.5605
77.5506
77.5433
77.539
77.5378
77.5368
77.5359
77.5347
77.5341
77.5336
77.5338
77.5345
77.5358
77.5376
77.54
77.543
77.5466
77.5507
77.555
77.5597
77.5641
77.5685
77.5724
77.576
77.5797
77.5857
77.5935
77.6031
77.613
77.6224
77.6291
77.6332
77.5688
77.564
77.5568
77.5472
77.5382
77.531
77.5262
77.5238
77.522
77.5205
77.519
77.518
77.5173
77.5174
77.5181
77.5195
77.5215
77.5243
77.5279
77.5321
77.5369
77.5419
77.5473
77.5526
77.5578
77.5626
77.5674
77.5724
77.579
77.5868
77.5958
77.6047
77.613
77.6189
77.6223
77.5545
77.5504
77.5441
77.5356
77.5273
77.5203
77.5151
77.512
77.5096
77.5075
77.5057
77.5044
77.5037
77.5037
77.5045
77.506
77.5084
77.5117
77.5158
77.5206
77.5261
77.5319
77.5379
77.5439
77.5498
77.5554
77.561
77.5669
77.5738
77.5816
77.59
77.598
77.6053
77.6105
77.6135
77.5421
77.5387
77.533
77.5254
77.5177
77.5108
77.5053
77.5015
77.4985
77.496
77.4938
77.4923
77.4914
77.4914
77.4923
77.4941
77.4969
77.5007
77.5055
77.511
77.5171
77.5236
77.5303
77.537
77.5436
77.55
77.5563
77.5628
77.57
77.5776
77.5854
77.5926
77.5991
77.6035
77.6063
77.5316
77.5285
77.5235
77.5165
77.5093
77.5024
77.4965
77.492
77.4884
77.4852
77.4827
77.4808
77.4797
77.4796
77.4806
77.4827
77.486
77.4905
77.496
77.5023
77.5093
77.5166
77.524
77.5314
77.5387
77.5458
77.5528
77.5598
77.5671
77.5745
77.5818
77.5884
77.5942
77.5982
77.6007
77.5228
77.5198
77.5154
77.5088
77.5019
77.4949
77.4886
77.4833
77.4789
77.475
77.4718
77.4694
77.4681
77.4679
77.469
77.4714
77.4753
77.4805
77.4869
77.4942
77.5021
77.5103
77.5186
77.5268
77.5349
77.5426
77.5502
77.5577
77.5651
77.5724
77.5792
77.5853
77.5907
77.5943
77.5965
77.5155
77.5127
77.5086
77.5024
77.4955
77.4883
77.4815
77.4754
77.4699
77.4651
77.4611
77.4581
77.4563
77.4559
77.4571
77.4599
77.4644
77.4705
77.4779
77.4863
77.4953
77.5046
77.5139
77.5231
77.5319
77.5404
77.5485
77.5564
77.5639
77.571
77.5775
77.5833
77.5883
77.5916
77.5936
77.5098
77.5072
77.5032
77.497
77.4901
77.4827
77.4752
77.4681
77.4615
77.4555
77.4504
77.4465
77.4441
77.4434
77.4446
77.4478
77.453
77.4602
77.4688
77.4785
77.4889
77.4994
77.5099
77.52
77.5297
77.539
77.5476
77.5557
77.5633
77.5703
77.5767
77.5823
77.587
77.5901
77.5919
77.5055
77.5031
77.4991
77.493
77.4858
77.478
77.4698
77.4615
77.4536
77.4462
77.4399
77.4348
77.4315
77.4304
77.4314
77.435
77.4411
77.4495
77.4595
77.4708
77.4827
77.4946
77.5064
77.5177
77.5283
77.5382
77.5474
77.5558
77.5634
77.5704
77.5766
77.5821
77.5866
77.5895
77.5911
77.5027
77.5005
77.4965
77.4902
77.4827
77.4742
77.4652
77.4558
77.4464
77.4374
77.4294
77.4229
77.4186
77.4168
77.4177
77.4216
77.4286
77.4384
77.4501
77.4632
77.4768
77.4904
77.5036
77.516
77.5276
77.5382
77.5478
77.5564
77.5642
77.5711
77.5773
77.5827
77.5871
77.5897
77.5913
77.5014
77.4993
77.4953
77.4887
77.4808
77.4717
77.4617
77.4509
77.44
77.4291
77.4194
77.4112
77.4057
77.4032
77.4037
77.4079
77.4157
77.4271
77.4407
77.4558
77.4714
77.4867
77.5014
77.5151
77.5276
77.5388
77.5488
77.5577
77.5655
77.5725
77.5787
77.584
77.5883
77.5908
77.5923
77.5014
77.4993
77.4954
77.4886
77.4802
77.4703
77.4594
77.4473
77.4348
77.4219
77.4102
77.4
77.3934
77.3902
77.3898
77.394
77.4025
77.4158
77.4314
77.4489
77.4665
77.4838
77.5
77.5149
77.5282
77.5401
77.5504
77.5595
77.5674
77.5744
77.5806
77.5859
77.5901
77.5926
77.594
77.5027
77.5007
77.4967
77.4897
77.4809
77.4704
77.4585
77.4452
77.4311
77.4163
77.4029
77.3908
77.3834
77.3799
77.3782
77.3818
77.3903
77.4054
77.4229
77.4429
77.4627
77.4818
77.4995
77.5155
77.5296
77.5419
77.5526
77.5618
77.5698
77.5768
77.583
77.5883
77.5924
77.595
77.5962
77.5052
77.5032
77.4993
77.4921
77.4829
77.4718
77.4592
77.4448
77.4295
77.4127
77.398
77.3838
77.3763
77.3735
77.3693
77.3712
77.3787
77.396
77.4155
77.4381
77.4599
77.481
77.5
77.5169
77.5317
77.5444
77.5552
77.5645
77.5726
77.5796
77.5858
77.5909
77.5951
77.5978
77.5988
77.5086
77.5068
77.5027
77.4955
77.4861
77.4747
77.4617
77.4466
77.4307
77.4128
77.3982
77.3837
77.3782
77.378
77.3704
77.369
77.373
77.3911
77.411
77.4357
77.4591
77.4815
77.5016
77.5192
77.5344
77.5473
77.5583
77.5677
77.5757
77.5827
77.5887
77.5939
77.5982
77.6008
77.6015
77.5124
77.511
77.5067
77.4997
77.4904
77.4789
77.4658
77.4504
77.4345
77.416
77.4022
77.3871
77.3867
77.3946
77.378
77.3702
77.3687
77.3887
77.4089
77.4355
77.46
77.4836
77.5043
77.5224
77.5378
77.5509
77.5619
77.5712
77.5792
77.586
77.5921
77.5973
77.6015
77.6039
77.6044
77.5168
77.5157
77.5114
77.5043
77.4954
77.4843
77.4715
77.4567
77.4418
77.4247
77.4149
77.4046
77.4111
77.4174
77.4041
77.3892
77.3789
77.3952
77.4128
77.4391
77.4635
77.4874
77.5082
77.5264
77.5419
77.555
77.5659
77.5751
77.583
77.5899
77.5959
77.601
77.6048
77.6068
77.6071
77.5212
77.5204
77.5164
77.5094
77.5009
77.4905
77.4787
77.465
77.4518
77.4368
77.429
77.419
77.4276
77.429
77.4214
77.4051
77.3939
77.4068
77.4218
77.4465
77.4699
77.4931
77.5136
77.5316
77.5469
77.5597
77.5705
77.5797
77.5876
77.5944
77.6001
77.6047
77.6079
77.6095
77.6095
77.5251
77.5247
77.5213
77.5153
77.5071
77.4974
77.4863
77.4731
77.4604
77.4459
77.4384
77.4268
77.432
77.4317
77.4254
77.4127
77.402
77.4148
77.4297
77.4537
77.4766
77.4994
77.5195
77.5372
77.5522
77.5651
77.576
77.5853
77.593
77.5994
77.6045
77.6083
77.6108
77.6121
77.6118
77.5287
77.5288
77.5261
77.5213
77.514
77.5048
77.4942
77.4817
77.4692
77.4547
77.4469
77.4365
77.4416
77.4413
77.4332
77.4212
77.4116
77.4247
77.4396
77.4626
77.4847
77.5067
77.5262
77.5437
77.5587
77.5716
77.5825
77.5915
77.5988
77.6045
77.6087
77.6116
77.6133
77.6143
77.6139
77.5322
77.5325
77.5305
77.5272
77.5216
77.5137
77.504
77.4926
77.4815
77.4694
77.464
77.456
77.4626
77.4625
77.4515
77.4407
77.4328
77.4426
77.4557
77.4762
77.4965
77.5169
77.5357
77.5526
77.5672
77.5796
77.59
77.5984
77.6049
77.6097
77.6128
77.6147
77.6157
77.6163
77.6162
77.5361
77.5362
77.535
77.5332
77.53
77.5245
77.5168
77.5074
77.4985
77.4907
77.489
77.4878
77.4982
77.4987
77.4867
77.477
77.4682
77.4713
77.4797
77.4948
77.5119
77.5301
77.5474
77.5632
77.5771
77.5889
77.5985
77.6061
77.6115
77.6151
77.617
77.6178
77.6181
77.6184
77.6184
77.5403
77.5402
77.5398
77.5397
77.539
77.5364
77.5313
77.5241
77.5172
77.5117
77.5114
77.513
77.524
77.5249
77.5131
77.5035
77.4948
77.4948
77.501
77.513
77.5277
77.544
77.56
77.5749
77.5881
77.5992
77.608
77.6146
77.6188
77.6209
77.6213
77.621
77.6206
77.6206
77.6207
77.5442
77.5441
77.5448
77.5465
77.5483
77.5486
77.546
77.5409
77.5352
77.5303
77.5296
77.5314
77.5399
77.5413
77.5313
77.5217
77.5148
77.5137
77.5183
77.5285
77.542
77.5571
77.5722
77.5864
77.599
77.6095
77.6177
77.6233
77.6264
77.6269
77.6259
77.6244
77.6231
77.6227
77.6228
77.547
77.5475
77.5497
77.5534
77.5572
77.5593
77.558
77.5532
77.5469
77.5406
77.5375
77.5371
77.5411
77.5426
77.5348
77.5257
77.5198
77.5195
77.5249
77.5354
77.549
77.5643
77.5796
77.5939
77.6066
77.6171
77.6251
77.6303
77.6328
77.6324
77.6304
77.6279
77.6255
77.6243
77.6242
76.8347
76.8311
76.8274
76.8227
76.82
76.821
76.8276
76.8407
76.8581
76.8777
76.8964
76.9134
76.9274
76.9386
76.9465
76.9517
76.9534
76.9534
76.9517
76.9464
76.9384
76.927
76.9126
76.8951
76.8754
76.8544
76.8351
76.8197
76.8109
76.8079
76.8092
76.813
76.8175
76.8206
76.8239
76.8414
76.8337
76.8266
76.8194
76.8134
76.8103
76.8128
76.8234
76.8394
76.8585
76.877
76.8939
76.9078
76.919
76.927
76.9324
76.9342
76.9342
76.9324
76.9269
76.9188
76.9074
76.8931
76.8756
76.8561
76.8353
76.8172
76.8038
76.7989
76.8
76.8047
76.8108
76.8173
76.8232
76.8299
76.8429
76.8323
76.8206
76.8076
76.7957
76.7881
76.7902
76.8067
76.8297
76.8558
76.8781
76.8976
76.9128
76.9248
76.9334
76.9392
76.9415
76.9415
76.9392
76.9333
76.9247
76.9126
76.8972
76.8773
76.8543
76.827
76.8019
76.7819
76.7766
76.7811
76.7909
76.8025
76.8138
76.8234
76.8328
76.8396
76.826
76.8097
76.7919
76.7776
76.7745
76.7892
76.8275
76.8623
76.8951
76.9186
76.9383
76.9524
76.9635
76.9711
76.9763
76.9784
76.9784
76.9762
76.971
76.9633
76.9521
76.9378
76.9182
76.8944
76.8612
76.8251
76.7843
76.7657
76.7642
76.7748
76.7902
76.806
76.8194
76.8313
76.8315
76.816
76.7971
76.7779
76.7664
76.7714
76.795
76.8423
76.8741
76.9044
76.9259
76.9444
76.9582
76.9691
76.9769
76.9823
76.9846
76.9845
76.9822
76.9768
76.9688
76.9577
76.9436
76.9248
76.9027
76.872
76.8395
76.7912
76.7645
76.7552
76.7622
76.778
76.796
76.8118
76.8249
76.8206
76.8036
76.7835
76.7649
76.7568
76.7675
76.7966
76.8486
76.881
76.913
76.935
76.9537
76.9672
76.9778
76.9852
76.9902
76.9923
76.9923
76.9902
76.9852
76.9777
76.967
76.9532
76.9343
76.9117
76.8792
76.8459
76.7932
76.7622
76.7481
76.7516
76.7658
76.7844
76.8015
76.8155
76.8063
76.788
76.7667
76.7479
76.7406
76.7529
76.7829
76.8367
76.8693
76.9021
76.9243
76.9431
76.9566
76.9672
76.9746
76.9796
76.9816
76.9817
76.9798
76.975
76.9678
76.9573
76.9438
76.9249
76.9024
76.8693
76.8359
76.7815
76.7498
76.7344
76.7375
76.7513
76.7703
76.7884
76.803
76.7884
76.7693
76.7472
76.7279
76.7197
76.7314
76.7606
76.8155
76.8474
76.8801
76.9015
76.9198
76.9326
76.9427
76.9497
76.9544
76.9563
76.9565
76.9549
76.9506
76.9441
76.9343
76.9218
76.9038
76.8825
76.8498
76.8172
76.7619
76.731
76.7162
76.7204
76.7348
76.7542
76.7729
76.7879
76.7671
76.748
76.7252
76.7049
76.6946
76.7037
76.7305
76.7849
76.8147
76.8456
76.865
76.8819
76.8936
76.9029
76.9093
76.9137
76.9156
76.9159
76.9147
76.911
76.9054
76.8967
76.8858
76.8695
76.8506
76.82
76.7899
76.7351
76.7067
76.6945
76.7009
76.7165
76.7364
76.7553
76.7702
76.7431
76.7245
76.7014
76.6802
76.667
76.6718
76.6938
76.7446
76.7709
76.7982
76.8147
76.8295
76.8396
76.8479
76.8536
76.8576
76.8594
76.8598
76.859
76.856
76.8515
76.8444
76.8354
76.8217
76.8061
76.7795
76.7533
76.7022
76.6787
76.671
76.6804
76.6972
76.7176
76.7363
76.7507
76.7173
76.6998
76.677
76.6553
76.6393
76.639
76.6545
76.6995
76.722
76.7442
76.7569
76.7687
76.7766
76.7834
76.7881
76.7915
76.7932
76.7938
76.7935
76.7915
76.7885
76.7833
76.777
76.7668
76.7554
76.7342
76.712
76.6669
76.6504
76.6482
76.6606
76.6781
76.6985
76.7167
76.7301
76.6908
76.6748
76.6529
76.6312
76.6131
76.607
76.6124
76.639
76.656
76.6723
76.6818
76.6908
76.6969
76.7023
76.7061
76.709
76.7105
76.7113
76.7115
76.7105
76.7088
76.7055
76.7016
76.6946
76.6867
76.6717
76.6552
76.6291
76.6229
76.6273
76.6423
76.6602
76.68
76.6971
76.7094
76.6648
76.6505
76.6303
76.6094
76.5914
76.5823
76.5818
76.5965
76.6072
76.6169
76.6222
76.6275
76.6311
76.6348
76.6374
76.6399
76.6416
76.6427
76.6435
76.6436
76.6434
76.6423
76.6412
76.6381
76.6346
76.6264
76.6167
76.603
76.6032
76.6112
76.6268
76.6441
76.6627
76.6784
76.6893
76.64
76.6275
76.6094
76.5902
76.5732
76.5626
76.5583
76.5649
76.5704
76.5753
76.5777
76.5805
76.5822
76.5844
76.5862
76.588
76.5895
76.5908
76.5923
76.5935
76.5948
76.5957
76.5968
76.5967
76.5964
76.5934
76.5893
76.5841
76.5889
76.5989
76.6138
76.6301
76.647
76.6609
76.6705
76.6171
76.6063
76.5904
76.5731
76.5576
76.5471
76.5411
76.5428
76.545
76.547
76.5478
76.5487
76.5492
76.5503
76.5514
76.5528
76.5542
76.5558
76.558
76.5602
76.5627
76.5651
76.568
76.57
76.5718
76.5721
76.5717
76.5718
76.5788
76.5891
76.603
76.6179
76.6329
76.6451
76.6534
76.5963
76.587
76.5733
76.5579
76.5441
76.5342
76.5279
76.5271
76.5274
76.5276
76.5273
76.5272
76.527
76.5275
76.5282
76.5294
76.5309
76.5329
76.5356
76.5386
76.542
76.5456
76.5495
76.553
76.5562
76.5586
76.5606
76.5638
76.5715
76.5814
76.5941
76.6075
76.6206
76.6311
76.6383
76.5776
76.5696
76.5579
76.5445
76.532
76.5229
76.5169
76.5147
76.5139
76.5131
76.5122
76.5115
76.511
76.5112
76.5118
76.513
76.5147
76.517
76.5201
76.5238
76.528
76.5324
76.5371
76.5415
76.5459
76.5496
76.5533
76.5582
76.5657
76.5751
76.5867
76.5986
76.61
76.6189
76.6251
76.5611
76.5541
76.5441
76.5324
76.5213
76.5127
76.507
76.5042
76.5025
76.5011
76.4999
76.4988
76.4981
76.4982
76.4989
76.5001
76.5021
76.5048
76.5083
76.5126
76.5174
76.5225
76.5279
76.5333
76.5384
76.5432
76.548
76.5536
76.561
76.5701
76.5807
76.5911
76.6009
76.6085
76.6139
76.5465
76.5404
76.5319
76.5216
76.5116
76.5035
76.4978
76.4945
76.4923
76.4904
76.4887
76.4874
76.4867
76.4867
76.4875
76.4889
76.4912
76.4944
76.4984
76.5033
76.5087
76.5145
76.5206
76.5266
76.5325
76.5381
76.5437
76.5498
76.5574
76.5661
76.5757
76.5849
76.5934
76.5998
76.6046
76.5338
76.5284
76.5211
76.5119
76.5028
76.495
76.4891
76.4853
76.4825
76.4801
76.4781
76.4766
76.4758
76.4759
76.4767
76.4784
76.4811
76.4848
76.4895
76.495
76.5012
76.5077
76.5144
76.521
76.5276
76.5339
76.5402
76.5468
76.5545
76.5629
76.5716
76.5798
76.5872
76.5928
76.5969
76.5229
76.5181
76.5117
76.5034
76.495
76.4873
76.4811
76.4766
76.4732
76.4702
76.4677
76.4659
76.4649
76.465
76.4659
76.4679
76.4711
76.4755
76.481
76.4872
76.4941
76.5014
76.5089
76.5163
76.5235
76.5305
76.5374
76.5447
76.5524
76.5605
76.5685
76.5758
76.5823
76.5873
76.5907
76.5137
76.5093
76.5036
76.496
76.488
76.4804
76.4737
76.4684
76.4641
76.4604
76.4573
76.455
76.4538
76.4537
76.4548
76.4571
76.4609
76.466
76.4724
76.4796
76.4875
76.4956
76.5039
76.5121
76.5201
76.5279
76.5355
76.5432
76.551
76.5588
76.5662
76.5728
76.5787
76.5832
76.5859
76.5058
76.5021
76.4968
76.4897
76.482
76.4742
76.467
76.4607
76.4554
76.4507
76.4467
76.4438
76.4421
76.4418
76.443
76.4457
76.4501
76.4562
76.4636
76.472
76.481
76.4902
76.4995
76.5086
76.5175
76.526
76.5342
76.5423
76.5502
76.5577
76.5647
76.5708
76.5763
76.5803
76.5824
76.4994
76.4964
76.4913
76.4845
76.4769
76.4688
76.4609
76.4536
76.447
76.441
76.436
76.4321
76.4297
76.4291
76.4303
76.4334
76.4387
76.4458
76.4545
76.4643
76.4746
76.4852
76.4956
76.5057
76.5155
76.5248
76.5337
76.5421
76.55
76.5574
76.564
76.5698
76.5749
76.5785
76.5802
76.4945
76.4922
76.4872
76.4805
76.4728
76.4643
76.4556
76.447
76.439
76.4315
76.425
76.4199
76.4166
76.4155
76.4166
76.4202
76.4263
76.4349
76.4451
76.4565
76.4684
76.4805
76.4923
76.5036
76.5142
76.5243
76.5337
76.5425
76.5505
76.5576
76.564
76.5695
76.5744
76.5777
76.5792
76.4913
76.4893
76.4845
76.4777
76.4698
76.4608
76.4512
76.4413
76.4315
76.4222
76.414
76.4072
76.4028
76.401
76.4019
76.4059
76.4131
76.4232
76.4352
76.4486
76.4624
76.4762
76.4895
76.5021
76.5138
76.5245
76.5344
76.5434
76.5514
76.5585
76.5647
76.57
76.5748
76.5779
76.5791
76.4896
76.4878
76.4832
76.4762
76.4679
76.4584
76.4478
76.4364
76.4249
76.4134
76.4032
76.3944
76.3886
76.3861
76.3865
76.3908
76.399
76.411
76.4251
76.4408
76.4568
76.4725
76.4874
76.5013
76.514
76.5255
76.5357
76.5448
76.5528
76.5598
76.566
76.5713
76.576
76.579
76.58
76.4894
76.4878
76.4832
76.4758
76.4673
76.4571
76.4455
76.4326
76.4192
76.4053
76.3929
76.3815
76.3743
76.3708
76.3704
76.3748
76.3838
76.3983
76.4148
76.4333
76.4516
76.4694
76.486
76.5012
76.5149
76.527
76.5376
76.5468
76.5548
76.5617
76.5678
76.5732
76.5779
76.5808
76.5816
76.4906
76.4892
76.4845
76.4768
76.4678
76.457
76.4446
76.4304
76.4152
76.3988
76.3843
76.3704
76.3621
76.3582
76.3563
76.3602
76.3692
76.3863
76.4051
76.4266
76.4473
76.4673
76.4856
76.502
76.5165
76.5291
76.5399
76.5492
76.5572
76.5641
76.5702
76.5756
76.5805
76.5832
76.5838
76.493
76.4919
76.4871
76.4791
76.4697
76.4583
76.4452
76.4296
76.4129
76.3938
76.3772
76.3595
76.3508
76.3471
76.3423
76.3446
76.3527
76.3741
76.3955
76.4208
76.4441
76.4663
76.4861
76.5036
76.5188
76.5317
76.5427
76.552
76.56
76.5669
76.5731
76.5787
76.5835
76.586
76.5864
76.4965
76.4957
76.4909
76.4826
76.4728
76.461
76.4475
76.4311
76.4138
76.3929
76.3767
76.3576
76.3522
76.3518
76.3427
76.3411
76.344
76.3676
76.3894
76.4176
76.4428
76.4669
76.4878
76.5062
76.5217
76.5349
76.5459
76.5552
76.5631
76.5701
76.5764
76.5821
76.5868
76.589
76.5893
76.5007
76.5001
76.4956
76.4871
76.477
76.465
76.4513
76.4344
76.4168
76.3935
76.3773
76.3518
76.3516
76.3584
76.3401
76.3315
76.3276
76.3603
76.3838
76.4162
76.4431
76.4689
76.4907
76.5096
76.5254
76.5386
76.5496
76.5588
76.5667
76.5738
76.5803
76.5858
76.59
76.5921
76.5923
76.5055
76.505
76.5009
76.4925
76.4823
76.4703
76.457
76.4405
76.4243
76.4023
76.3918
76.3722
76.3853
76.401
76.3752
76.3572
76.3397
76.3682
76.3873
76.4199
76.4467
76.4729
76.4949
76.5139
76.5297
76.5428
76.5538
76.563
76.5711
76.5782
76.5844
76.5894
76.5931
76.5948
76.5949
76.5096
76.5094
76.5061
76.4986
76.4886
76.4768
76.464
76.4483
76.4338
76.4137
76.4065
76.3884
76.4093
76.4143
76.4003
76.3769
76.3549
76.3795
76.3957
76.427
76.4529
76.4787
76.5004
76.5191
76.5348
76.5479
76.5589
76.5682
76.5761
76.5829
76.5885
76.5929
76.596
76.5973
76.5971
76.5131
76.5133
76.5108
76.5048
76.4959
76.4843
76.4717
76.4563
76.4421
76.4223
76.4149
76.3958
76.4151
76.4099
76.3995
76.3797
76.3617
76.3869
76.4038
76.4346
76.4601
76.4853
76.5067
76.5254
76.541
76.5541
76.5649
76.574
76.5814
76.5875
76.5925
76.5962
76.5986
76.5996
76.5991
76.5162
76.5169
76.5151
76.5105
76.5035
76.4933
76.4811
76.4661
76.4523
76.4339
76.4276
76.4092
76.4259
76.4216
76.4057
76.3898
76.3751
76.4005
76.4173
76.4459
76.4702
76.4945
76.5153
76.5334
76.5485
76.561
76.5714
76.5799
76.5868
76.5922
76.5963
76.5992
76.6009
76.6016
76.601
76.5192
76.52
76.5187
76.5158
76.5108
76.5032
76.4931
76.4799
76.4671
76.4514
76.4456
76.4309
76.4514
76.4481
76.4242
76.4077
76.3982
76.4197
76.4363
76.4615
76.4841
76.5063
76.5256
76.5423
76.5565
76.5684
76.5783
76.5863
76.5926
76.5971
76.6002
76.602
76.6029
76.6034
76.603
76.5227
76.523
76.5219
76.5208
76.5182
76.5132
76.5059
76.4959
76.4863
76.4761
76.4738
76.4733
76.4981
76.4988
76.4739
76.4559
76.4447
76.4518
76.4627
76.4811
76.4995
76.5185
76.5359
76.5516
76.5652
76.5768
76.5862
76.5936
76.5989
76.6023
76.604
76.6047
76.6048
76.6052
76.6051
76.5266
76.5262
76.526
76.5264
76.5263
76.5242
76.5192
76.5115
76.5037
76.4957
76.4954
76.4994
76.5218
76.5259
76.505
76.4861
76.4743
76.475
76.4822
76.4969
76.5132
76.5305
76.5471
76.5623
76.5755
76.5866
76.5954
76.6019
76.6061
76.608
76.6082
76.6075
76.607
76.6071
76.6074
76.5307
76.5299
76.5302
76.5324
76.5352
76.5357
76.5328
76.5267
76.5197
76.5138
76.5147
76.5197
76.5359
76.54
76.5271
76.5113
76.5002
76.4977
76.5017
76.5125
76.527
76.543
76.5586
76.5731
76.5859
76.5965
76.6048
76.6104
76.6135
76.614
76.6127
76.6106
76.6092
76.609
76.6096
76.5343
76.5338
76.5362
76.5412
76.5465
76.5495
76.5477
76.5417
76.5338
76.5266
76.5239
76.5251
76.5325
76.537
76.5289
76.5156
76.5066
76.5051
76.5104
76.5215
76.5359
76.552
76.5679
76.5826
76.5955
76.6062
76.6143
76.6197
76.6221
76.6212
76.6185
76.615
76.612
76.611
76.6114
75.819
75.8156
75.8116
75.8052
75.7991
75.7952
75.796
75.8039
75.8163
75.8321
75.8482
75.8637
75.8771
75.8879
75.8958
75.901
75.9026
75.9026
75.901
75.8956
75.8875
75.8763
75.8623
75.8459
75.8283
75.8108
75.7963
75.7862
75.7833
75.7858
75.7912
75.7974
75.803
75.8062
75.8092
75.8249
75.8172
75.8096
75.8004
75.7906
75.7824
75.7791
75.7844
75.7949
75.8102
75.8266
75.8429
75.8565
75.8675
75.8754
75.8807
75.8824
75.8825
75.8807
75.8752
75.8671
75.8557
75.8416
75.8243
75.806
75.7884
75.7755
75.7678
75.7692
75.776
75.7851
75.7942
75.8019
75.8082
75.8151
75.824
75.8134
75.8003
75.7841
75.7674
75.7538
75.7486
75.7595
75.7761
75.8006
75.8224
75.8417
75.8569
75.869
75.8776
75.8835
75.8858
75.8858
75.8835
75.8776
75.8689
75.8565
75.841
75.8208
75.7982
75.7711
75.751
75.7372
75.7396
75.7511
75.7666
75.7823
75.7961
75.8069
75.8163
75.8158
75.8022
75.7837
75.7622
75.7431
75.7324
75.7347
75.7703
75.8029
75.8372
75.8609
75.8817
75.8962
75.9078
75.9157
75.921
75.9233
75.9233
75.9211
75.9158
75.9078
75.8961
75.8814
75.8606
75.8361
75.8008
75.7656
75.7261
75.7203
75.7279
75.7445
75.7646
75.7839
75.7993
75.8113
75.8021
75.7872
75.7666
75.7454
75.7297
75.7274
75.7401
75.789
75.819
75.8502
75.8712
75.8902
75.904
75.9152
75.923
75.9283
75.9305
75.9305
75.9282
75.9229
75.915
75.9036
75.8894
75.87
75.8483
75.8166
75.7854
75.7346
75.7188
75.7178
75.7305
75.7492
75.7699
75.7876
75.8005
75.7861
75.77
75.7483
75.7285
75.7159
75.7195
75.7385
75.7953
75.8261
75.8597
75.8813
75.9008
75.9144
75.9253
75.9327
75.9377
75.9398
75.9398
75.9377
75.9328
75.9253
75.9143
75.9004
75.8807
75.8584
75.8243
75.7927
75.7347
75.7135
75.7071
75.7169
75.734
75.7547
75.7737
75.7872
75.768
75.7509
75.7281
75.7086
75.6967
75.7024
75.7221
75.7814
75.8115
75.846
75.8676
75.8871
75.9007
75.9116
75.919
75.924
75.9262
75.9263
75.9243
75.9195
75.9122
75.9015
75.8879
75.8684
75.8465
75.8117
75.7808
75.7207
75.6991
75.6913
75.7005
75.717
75.7382
75.758
75.772
75.7482
75.7303
75.7062
75.686
75.6735
75.6792
75.6987
75.7605
75.7897
75.8241
75.8446
75.8635
75.8763
75.8867
75.8937
75.8985
75.9006
75.9008
75.8991
75.8948
75.8882
75.8782
75.8658
75.8473
75.8268
75.7925
75.7629
75.7005
75.6793
75.6715
75.6817
75.6986
75.7206
75.7413
75.7555
75.7268
75.7085
75.6829
75.6611
75.6466
75.6501
75.6673
75.7302
75.7571
75.7894
75.8076
75.825
75.8365
75.8462
75.8526
75.8571
75.8591
75.8595
75.8582
75.8544
75.8488
75.84
75.8292
75.8126
75.7949
75.7631
75.736
75.6728
75.654
75.6486
75.6608
75.6792
75.7024
75.7238
75.738
75.7042
75.686
75.6592
75.6352
75.6178
75.6172
75.6294
75.6888
75.7125
75.7404
75.7556
75.7707
75.7806
75.7891
75.7949
75.799
75.8008
75.8013
75.8004
75.7975
75.793
75.7857
75.7771
75.7633
75.7491
75.722
75.6985
75.6391
75.6256
75.6245
75.6395
75.6599
75.6843
75.706
75.7198
75.681
75.6635
75.6361
75.6104
75.5899
75.5846
75.5897
75.6429
75.6656
75.6879
75.6991
75.7109
75.7183
75.7252
75.7298
75.7333
75.735
75.7357
75.7354
75.7335
75.7307
75.7256
75.72
75.7099
75.7002
75.6791
75.6565
75.6037
75.5979
75.6018
75.6198
75.6419
75.6669
75.6884
75.7014
75.6579
75.6418
75.6148
75.5881
75.565
75.5545
75.55
75.5733
75.5907
75.6057
75.6138
75.6224
75.6279
75.6332
75.6368
75.6396
75.6411
75.6419
75.6421
75.6413
75.64
75.6371
75.6342
75.6279
75.6216
75.608
75.5913
75.5688
75.5732
75.5827
75.6032
75.6263
75.651
75.6716
75.6833
75.6356
75.6214
75.5961
75.5701
75.5466
75.535
75.5291
75.5406
75.5509
75.5581
75.5609
75.5645
75.5667
75.5697
75.572
75.5746
75.5766
75.5779
75.5788
75.579
75.5794
75.5791
75.5796
75.5783
75.5773
75.5716
75.5625
75.5521
75.5584
75.5701
75.5911
75.6137
75.6368
75.6558
75.6661
75.6147
75.6025
75.5796
75.5554
75.533
75.5205
75.514
75.5187
75.5234
75.5256
75.5256
75.5263
75.5265
75.5278
75.529
75.5307
75.5323
75.5337
75.5353
75.5369
75.539
75.541
75.544
75.546
75.5481
75.5476
75.5444
75.5412
75.5493
75.5621
75.5822
75.6033
75.6244
75.6413
75.6501
75.5952
75.585
75.5649
75.5431
75.5228
75.5099
75.5032
75.5053
75.5074
75.5077
75.5066
75.5057
75.5046
75.5046
75.505
75.506
75.5073
75.509
75.5113
75.5141
75.5177
75.5214
75.5259
75.5297
75.5332
75.5351
75.5347
75.5352
75.5439
75.5572
75.5756
75.5949
75.6135
75.6282
75.6355
75.5772
75.5689
75.5516
75.5323
75.5141
75.5018
75.4955
75.4964
75.4974
75.4969
75.4955
75.4939
75.4922
75.4915
75.4915
75.4922
75.4935
75.4956
75.4985
75.5022
75.5066
75.5113
75.5165
75.5214
75.5256
75.5284
75.5298
75.5322
75.5409
75.5539
75.5705
75.5878
75.6039
75.6164
75.6224
75.5609
75.5541
75.5395
75.5227
75.5065
75.495
75.4888
75.4889
75.4897
75.489
75.4877
75.486
75.4844
75.4837
75.4836
75.4843
75.4858
75.4882
75.4916
75.4958
75.5007
75.5059
75.5114
75.5165
75.5209
75.5243
75.5265
75.5305
75.5396
75.5517
75.5666
75.5817
75.5955
75.606
75.6108
75.5461
75.5406
75.5283
75.5138
75.4994
75.4888
75.4826
75.4817
75.4825
75.4819
75.4808
75.4794
75.4783
75.4778
75.478
75.4788
75.4805
75.4832
75.4869
75.4915
75.4967
75.5023
75.5079
75.513
75.5175
75.5213
75.5245
75.5298
75.5386
75.55
75.5633
75.5764
75.5881
75.5968
75.6007
75.5327
75.5283
75.5181
75.5054
75.4926
75.4827
75.4765
75.4747
75.4751
75.4746
75.4737
75.4726
75.4718
75.4716
75.472
75.473
75.4749
75.478
75.4822
75.4872
75.4928
75.4988
75.5046
75.51
75.5148
75.519
75.5233
75.5293
75.538
75.5486
75.5605
75.5719
75.5818
75.5889
75.592
75.5209
75.5173
75.5087
75.4976
75.4861
75.4765
75.4703
75.4677
75.4673
75.4667
75.4658
75.4648
75.4641
75.4641
75.4647
75.466
75.4684
75.472
75.4768
75.4823
75.4885
75.4948
75.5011
75.5069
75.5122
75.5172
75.5223
75.5289
75.5374
75.5475
75.5581
75.568
75.5764
75.5824
75.5846
75.5104
75.5075
75.5002
75.4904
75.4798
75.4705
75.4639
75.4604
75.459
75.458
75.4569
75.4557
75.455
75.4551
75.4559
75.4576
75.4605
75.4648
75.4703
75.4766
75.4834
75.4903
75.4971
75.5036
75.5096
75.5153
75.5213
75.5284
75.5371
75.5465
75.5561
75.5647
75.572
75.577
75.5786
75.5013
75.499
75.4927
75.4838
75.474
75.4647
75.4576
75.4529
75.4502
75.4484
75.4467
75.4453
75.4444
75.4445
75.4454
75.4475
75.4511
75.4562
75.4626
75.4698
75.4776
75.4853
75.4929
75.5
75.5069
75.5136
75.5205
75.5282
75.5369
75.5459
75.5545
75.5622
75.5685
75.5728
75.574
75.4936
75.4919
75.4862
75.4781
75.4687
75.4593
75.4513
75.4454
75.4411
75.4381
75.4354
75.4333
75.432
75.432
75.433
75.4355
75.44
75.4461
75.4537
75.4621
75.471
75.4799
75.4885
75.4966
75.5044
75.5121
75.5199
75.5282
75.5369
75.5455
75.5535
75.5604
75.5661
75.5696
75.5707
75.4874
75.4861
75.4809
75.4732
75.464
75.4543
75.4454
75.4379
75.432
75.4271
75.4231
75.4198
75.4178
75.4174
75.4185
75.4215
75.4269
75.4344
75.4435
75.4535
75.4639
75.4741
75.4841
75.4935