/*--------------------------------*- C++ -*----------------------------------*\
| =========                 |                                                 |
| \\      /  F ield         | OpenFOAM: The Open Source CFD Toolbox           |
|  \\    /   O peration     | Version:  2.3.1                                 |
|   \\  /    A nd           | Web:      www.OpenFOAM.org                      |
|    \\/     M anipulation  |                                                 |
\*---------------------------------------------------------------------------*/
FoamFile
{
    version     2.0;
    format      ascii;
    class       volScalarField;
    location    "600";
    object      p_rgh;
}
// * * * * * * * * * * * * * * * * * * * * * * * * * * * * * * * * * * * * * //

dimensions      [0 2 -2 0 0 0 0];

internalField   nonuniform List<scalar> 
47964
(
78.3539
78.3511
78.3481
78.3452
78.3451
78.3495
78.36
78.3764
78.3958
78.4164
78.4355
78.4525
78.4665
78.4776
78.4856
78.4909
78.4928
78.4928
78.4908
78.4855
78.4773
78.466
78.4516
78.434
78.4141
78.3924
78.3713
78.3528
78.3401
78.3336
78.3322
78.334
78.3373
78.3402
78.3426
78.3581
78.3531
78.3474
78.3417
78.3387
78.3405
78.349
78.3645
78.3832
78.4036
78.4224
78.4393
78.4531
78.4641
78.4721
78.4775
78.4796
78.4795
78.4775
78.472
78.4639
78.4526
78.4384
78.421
78.4013
78.3796
78.3591
78.3413
78.3304
78.3262
78.3274
78.3315
78.3371
78.342
78.3461
78.3601
78.3526
78.3436
78.3344
78.3284
78.3284
78.3384
78.3599
78.3848
78.4108
78.4326
78.4514
78.466
78.4776
78.486
78.4918
78.4942
78.4942
78.4917
78.4858
78.4773
78.4655
78.4506
78.4315
78.4092
78.3823
78.3557
78.3315
78.3184
78.3153
78.319
78.3261
78.3348
78.3423
78.3482
78.3586
78.3488
78.3365
78.3246
78.3192
78.3258
78.3496
78.3912
78.427
78.4586
78.4806
78.4988
78.5118
78.522
78.529
78.5338
78.5355
78.5355
78.5336
78.5288
78.5215
78.5111
78.4979
78.4797
78.4573
78.4256
78.389
78.3457
78.3182
78.3076
78.3092
78.3179
78.3295
78.3397
78.3473
78.3528
78.3414
78.3273
78.3146
78.311
78.324
78.3566
78.4042
78.4363
78.4651
78.4855
78.5028
78.5157
78.526
78.5332
78.5381
78.54
78.54
78.538
78.533
78.5256
78.5151
78.5018
78.484
78.4629
78.4336
78.4008
78.3525
78.3178
78.3008
78.3001
78.3088
78.3217
78.3336
78.3423
78.3434
78.3308
78.3159
78.3039
78.3036
78.3214
78.3588
78.4107
78.4441
78.4747
78.4958
78.5134
78.5261
78.536
78.5429
78.5474
78.549
78.549
78.5474
78.5429
78.536
78.5259
78.5129
78.4951
78.4733
78.4421
78.4078
78.3554
78.3161
78.295
78.2912
78.2984
78.3116
78.3243
78.3337
78.3293
78.3158
78.3
78.2879
78.2886
78.308
78.3465
78.4001
78.4341
78.4659
78.4876
78.5056
78.5185
78.5287
78.5357
78.5405
78.5424
78.5424
78.5407
78.5361
78.5292
78.5192
78.5062
78.4881
78.466
78.4337
78.3988
78.3448
78.3047
78.2823
78.2775
78.2844
78.2981
78.3115
78.3214
78.3108
78.2969
78.2805
78.2677
78.2677
78.2861
78.3234
78.3774
78.4111
78.443
78.4643
78.4818
78.4943
78.504
78.5108
78.5154
78.5173
78.5174
78.5159
78.5117
78.5053
78.4959
78.4838
78.4664
78.4452
78.4131
78.3788
78.3243
78.2854
78.264
78.2601
78.2677
78.2819
78.2957
78.3058
78.2884
78.2746
78.2579
78.2442
78.2425
78.2585
78.2931
78.3459
78.3775
78.4077
78.4271
78.4434
78.4548
78.4638
78.47
78.4744
78.4762
78.4765
78.4753
78.4716
78.4661
78.4578
78.4471
78.4314
78.4124
78.3825
78.3506
78.2973
78.2611
78.2422
78.2401
78.2488
78.2636
78.2775
78.2874
78.263
78.2498
78.233
78.2182
78.2141
78.2265
78.2561
78.3051
78.3327
78.3595
78.376
78.3903
78.4001
78.4082
78.4137
78.4177
78.4194
78.4198
78.419
78.416
78.4116
78.4046
78.3959
78.3827
78.367
78.3409
78.3133
78.2641
78.233
78.218
78.2186
78.2286
78.2439
78.2576
78.2671
78.2358
78.2235
78.2071
78.1916
78.1848
78.193
78.2162
78.2587
78.2814
78.3032
78.3159
78.3273
78.3351
78.3418
78.3463
78.3498
78.3513
78.3519
78.3516
78.3496
78.3465
78.3414
78.3353
78.3253
78.3139
78.2932
78.2708
78.2281
78.2038
78.1935
78.197
78.2083
78.2237
78.2369
78.2457
78.208
78.1968
78.1812
78.1651
78.1558
78.1583
78.1717
78.2
78.2165
78.2326
78.242
78.2508
78.2568
78.2622
78.2659
78.2689
78.2704
78.2711
78.2712
78.2701
78.2683
78.265
78.2611
78.2542
78.2464
78.2316
78.2156
78.1878
78.1738
78.1696
78.1764
78.1887
78.2039
78.2162
78.2244
78.1808
78.1708
78.1564
78.1407
78.1298
78.1281
78.1347
78.1511
78.1614
78.1714
78.177
78.1826
78.1865
78.1903
78.193
78.1955
78.197
78.1981
78.1988
78.1987
78.1984
78.1971
78.1957
78.1922
78.1884
78.18
78.1707
78.155
78.1486
78.1492
78.1581
78.1707
78.1853
78.1965
78.2038
78.1551
78.1464
78.1336
78.1186
78.1072
78.1025
78.1042
78.1128
78.1181
78.1234
78.1261
78.1292
78.1312
78.1335
78.1354
78.1374
78.1388
78.1401
78.1415
78.1425
78.1436
78.1442
78.145
78.1446
78.144
78.1406
78.1367
78.1293
78.1282
78.1324
78.1424
78.1548
78.1683
78.1783
78.1848
78.1316
78.1241
78.1128
78.0991
78.0879
78.0814
78.08
78.0837
78.0859
78.0879
78.0886
78.0897
78.0904
78.0917
78.0929
78.0945
78.0959
78.0975
78.0995
78.1015
78.1038
78.106
78.1086
78.1105
78.1123
78.1124
78.1121
78.1101
78.1127
78.119
78.1293
78.1411
78.1532
78.162
78.1676
78.1104
78.104
78.0943
78.082
78.0713
78.0642
78.0608
78.0615
78.0617
78.0618
78.0613
78.0612
78.0612
78.0617
78.0626
78.0639
78.0655
78.0675
78.07
78.0729
78.0762
78.0796
78.0834
78.0868
78.0902
78.0926
78.0947
78.0962
78.101
78.1083
78.1184
78.1293
78.14
78.1477
78.1526
78.0917
78.0861
78.0778
78.0669
78.0571
78.0498
78.0455
78.0443
78.0432
78.0423
78.0412
78.0405
78.0401
78.0403
78.041
78.0423
78.0441
78.0465
78.0495
78.0531
78.0572
78.0615
78.0661
78.0706
78.075
78.0789
78.0825
78.0862
78.0921
78.0999
78.1096
78.1194
78.1288
78.1356
78.1397
78.0753
78.0705
78.0633
78.0537
78.0447
78.0375
78.0327
78.0303
78.0285
78.027
78.0255
78.0244
78.0238
78.0239
78.0245
78.0259
78.028
78.0308
78.0343
78.0385
78.0433
78.0484
78.0538
78.059
78.0643
78.0691
78.0739
78.0789
78.0854
78.0933
78.1023
78.1112
78.1194
78.1254
78.1288
78.0609
78.0569
78.0506
78.0421
78.0338
78.0267
78.0216
78.0184
78.0161
78.014
78.0122
78.0109
78.0101
78.0102
78.0109
78.0125
78.0149
78.0182
78.0223
78.0271
78.0326
78.0383
78.0444
78.0503
78.0562
78.0619
78.0675
78.0734
78.0803
78.0881
78.0965
78.1045
78.1118
78.1169
78.1199
78.0486
78.0451
78.0395
78.0319
78.0242
78.0172
78.0118
78.008
78.005
78.0024
78.0003
77.9987
77.9979
77.9979
77.9987
78.0005
78.0033
78.0072
78.0119
78.0175
78.0236
78.0301
78.0368
78.0435
78.0501
78.0565
78.0628
78.0693
78.0764
78.084
78.0918
78.0991
78.1056
78.11
78.1128
78.0381
78.035
78.03
78.023
78.0157
78.0088
78.003
77.9985
77.9948
77.9917
77.9891
77.9872
77.9861
77.9861
77.9871
77.9892
77.9925
77.997
78.0025
78.0088
78.0158
78.023
78.0305
78.0379
78.0452
78.0523
78.0592
78.0663
78.0736
78.081
78.0883
78.0949
78.1007
78.1047
78.1071
78.0292
78.0263
78.0218
78.0153
78.0083
78.0014
77.9951
77.9898
77.9853
77.9815
77.9783
77.9759
77.9745
77.9744
77.9755
77.9779
77.9818
77.987
77.9934
78.0007
78.0086
78.0168
78.0251
78.0333
78.0413
78.0491
78.0567
78.0642
78.0716
78.0788
78.0857
78.0918
78.0972
78.1008
78.103
78.022
78.0192
78.015
78.0088
78.002
77.9948
77.988
77.9818
77.9764
77.9716
77.9676
77.9645
77.9627
77.9624
77.9635
77.9663
77.9709
77.977
77.9844
77.9928
78.0018
78.0111
78.0204
78.0295
78.0384
78.0469
78.055
78.0628
78.0704
78.0774
78.084
78.0898
78.0948
78.0981
78.1001
78.0162
78.0137
78.0096
78.0035
77.9966
77.9892
77.9817
77.9746
77.968
77.962
77.9569
77.953
77.9505
77.9499
77.951
77.9542
77.9595
77.9666
77.9753
77.985
77.9953
78.0059
78.0163
78.0265
78.0362
78.0454
78.0541
78.0622
78.0698
78.0768
78.0831
78.0887
78.0935
78.0965
78.0983
78.012
78.0096
78.0056
77.9994
77.9923
77.9844
77.9762
77.968
77.9601
77.9527
77.9463
77.9412
77.938
77.9368
77.9379
77.9415
77.9476
77.956
77.966
77.9773
77.9891
78.0011
78.0129
78.0241
78.0348
78.0447
78.0538
78.0622
78.0699
78.0768
78.0831
78.0886
78.0931
78.0959
78.0976
78.0092
78.007
78.003
77.9967
77.9891
77.9807
77.9716
77.9622
77.9529
77.9438
77.9359
77.9294
77.925
77.9233
77.9242
77.9281
77.9351
77.9449
77.9566
77.9697
77.9833
77.9969
78.01
78.0225
78.034
78.0447
78.0543
78.0629
78.0707
78.0776
78.0838
78.0892
78.0936
78.0962
78.0977
78.0078
78.0057
78.0017
77.9952
77.9873
77.9781
77.9681
77.9574
77.9465
77.9356
77.9259
77.9177
77.9122
77.9097
77.9101
77.9143
77.9221
77.9336
77.9471
77.9623
77.9778
77.9932
78.0079
78.0215
78.034
78.0453
78.0553
78.0642
78.072
78.079
78.0851
78.0905
78.0948
78.0972
78.0987
78.0078
78.0058
78.0018
77.995
77.9866
77.9768
77.9658
77.9538
77.9412
77.9283
77.9167
77.9065
77.8999
77.8967
77.8963
77.9005
77.9089
77.9222
77.9379
77.9554
77.973
77.9903
78.0065
78.0213
78.0347
78.0465
78.0569
78.0659
78.0739
78.0809
78.0871
78.0924
78.0966
78.0991
78.1004
78.0091
78.0071
78.0032
77.9962
77.9873
77.9768
77.965
77.9517
77.9376
77.9227
77.9094
77.8972
77.8899
77.8864
77.8846
77.8883
77.8967
77.9119
77.9294
77.9494
77.9691
77.9883
78.006
78.0219
78.0361
78.0484
78.059
78.0682
78.0763
78.0833
78.0895
78.0947
78.0989
78.1015
78.1027
78.0116
78.0097
78.0058
77.9986
77.9894
77.9783
77.9657
77.9513
77.9359
77.9191
77.9044
77.8903
77.8828
77.88
77.8757
77.8777
77.8852
77.9025
77.9219
77.9445
77.9664
77.9874
78.0064
78.0234
78.0381
78.0508
78.0617
78.071
78.079
78.0861
78.0922
78.0974
78.1016
78.1042
78.1052
78.015
78.0133
78.0091
78.002
77.9926
77.9812
77.9681
77.953
77.9371
77.9193
77.9047
77.8901
77.8846
77.8844
77.8768
77.8754
77.8795
77.8976
77.9175
77.9421
77.9655
77.988
78.008
78.0257
78.0409
78.0538
78.0648
78.0741
78.0822
78.0892
78.0952
78.1004
78.1047
78.1072
78.108
78.0189
78.0174
78.0131
78.0062
77.9968
77.9854
77.9723
77.9569
77.9409
77.9225
77.9087
77.8936
77.8932
77.901
77.8844
77.8767
77.8752
77.8951
77.9154
77.942
77.9665
77.9901
78.0108
78.0289
78.0443
78.0573
78.0683
78.0777
78.0857
78.0925
78.0985
78.1038
78.108
78.1104
78.1109
78.0233
78.0222
78.0178
78.0108
78.0018
77.9907
77.978
77.9631
77.9482
77.9311
77.9214
77.9111
77.9176
77.9239
77.9106
77.8956
77.8853
77.9017
77.9193
77.9456
77.97
77.9938
78.0147
78.0329
78.0484
78.0614
78.0724
78.0816
78.0895
78.0963
78.1024
78.1075
78.1112
78.1133
78.1136
78.0276
78.0268
78.0228
78.0159
78.0073
77.997
77.9851
77.9714
77.9582
77.9433
77.9355
77.9254
77.934
77.9355
77.9279
77.9116
77.9004
77.9133
77.9283
77.9529
77.9764
77.9996
78.0201
78.0381
78.0533
78.0662
78.077
78.0862
78.094
78.1009
78.1066
78.1112
78.1144
78.116
78.116
78.0315
78.0311
78.0278
78.0217
78.0136
78.0039
77.9927
77.9796
77.9669
77.9524
77.9448
77.9332
77.9385
77.9382
77.9319
77.9191
77.9084
77.9212
77.9361
77.9601
77.9831
78.0058
78.026
78.0436
78.0587
78.0716
78.0825
78.0917
78.0995
78.1059
78.111
78.1148
78.1172
78.1185
78.1183
78.0351
78.0352
78.0326
78.0277
78.0205
78.0113
78.0007
77.9881
77.9756
77.9612
77.9534
77.943
77.9481
77.9478
77.9397
77.9276
77.918
77.9312
77.9461
77.9691
77.9912
78.0131
78.0327
78.0501
78.0652
78.0781
78.089
78.098
78.1053
78.111
78.1152
78.1181
78.1198
78.1207
78.1204
78.0387
78.0389
78.037
78.0336
78.0281
78.0201
78.0105
77.9991
77.988
77.9758
77.9704
77.9625
77.9691
77.9689
77.9579
77.9471
77.9392
77.949
77.9622
77.9826
78.0029
78.0234
78.0421
78.059
78.0737
78.0861
78.0965
78.1048
78.1114
78.1161
78.1193
78.1212
78.1222
78.1228
78.1226
78.0426
78.0426
78.0414
78.0397
78.0365
78.031
78.0232
78.0138
78.005
77.9971
77.9954
77.9943
78.0047
78.0052
77.9932
77.9835
77.9746
77.9778
77.9861
78.0013
78.0184
78.0365
78.0538
78.0697
78.0835
78.0953
78.105
78.1125
78.118
78.1215
78.1234
78.1243
78.1246
78.1249
78.1249
78.0467
78.0467
78.0463
78.0461
78.0454
78.0428
78.0378
78.0306
78.0236
78.0182
78.0179
78.0194
78.0305
78.0313
78.0195
78.01
78.0013
78.0013
78.0075
78.0195
78.0341
78.0504
78.0665
78.0814
78.0945
78.1056
78.1145
78.121
78.1253
78.1274
78.1278
78.1275
78.1271
78.1271
78.1272
78.0506
78.0506
78.0513
78.0529
78.0547
78.0551
78.0525
78.0473
78.0416
78.0367
78.036
78.0379
78.0464
78.0478
78.0378
78.0282
78.0213
78.0202
78.0247
78.035
78.0484
78.0635
78.0787
78.0929
78.1055
78.116
78.1241
78.1298
78.1328
78.1334
78.1324
78.1309
78.1296
78.1292
78.1292
78.0535
78.0539
78.0562
78.0599
78.0637
78.0658
78.0645
78.0597
78.0533
78.0471
78.044
78.0435
78.0475
78.0491
78.0413
78.0322
78.0263
78.026
78.0314
78.0418
78.0555
78.0707
78.086
78.1004
78.113
78.1235
78.1315
78.1368
78.1393
78.1389
78.1369
78.1344
78.132
78.1308
78.1307
78.3541
78.3505
78.3468
78.3421
78.3394
78.3404
78.347
78.3601
78.3775
78.3971
78.4158
78.4328
78.4468
78.458
78.4659
78.4711
78.4728
78.4728
78.4711
78.4658
78.4578
78.4464
78.432
78.4145
78.3948
78.3738
78.3545
78.3391
78.3303
78.3273
78.3286
78.3324
78.3369
78.34
78.3433
78.3608
78.3531
78.346
78.3388
78.3328
78.3297
78.3322
78.3428
78.3588
78.3779
78.3964
78.4133
78.4272
78.4384
78.4464
78.4518
78.4536
78.4536
78.4518
78.4463
78.4382
78.4268
78.4125
78.395
78.3755
78.3547
78.3366
78.3232
78.3183
78.3194
78.3241
78.3302
78.3367
78.3426
78.3493
78.3623
78.3517
78.34
78.327
78.315
78.3075
78.3096
78.3261
78.3491
78.3752
78.3975
78.417
78.4322
78.4442
78.4528
78.4586
78.4609
78.4609
78.4586
78.4527
78.4441
78.432
78.4166
78.3967
78.3737
78.3464
78.3213
78.3013
78.296
78.3005
78.3103
78.3219
78.3332
78.3428
78.3522
78.359
78.3454
78.3291
78.3113
78.297
78.2939
78.3086
78.3469
78.3817
78.4145
78.438
78.4577
78.4718
78.4829
78.4905
78.4957
78.4978
78.4977
78.4956
78.4904
78.4827
78.4715
78.4572
78.4376
78.4138
78.3806
78.3445
78.3037
78.2851
78.2836
78.2942
78.3096
78.3254
78.3388
78.3507
78.3509
78.3354
78.3165
78.2973
78.2858
78.2908
78.3144
78.3617
78.3935
78.4238
78.4453
78.4638
78.4776
78.4885
78.4963
78.5017
78.504
78.5039
78.5016
78.4962
78.4882
78.4771
78.463
78.4442
78.4221
78.3914
78.3589
78.3106
78.2839
78.2746
78.2816
78.2974
78.3154
78.3312
78.3443
78.34
78.323
78.3029
78.2843
78.2762
78.2869
78.316
78.368
78.4004
78.4324
78.4544
78.4731
78.4866
78.4972
78.5046
78.5096
78.5117
78.5117
78.5096
78.5046
78.4971
78.4864
78.4726
78.4537
78.4311
78.3986
78.3653
78.3126
78.2816
78.2675
78.271
78.2852
78.3038
78.3209
78.3349
78.3257
78.3074
78.2861
78.2673
78.26
78.2723
78.3023
78.3561
78.3887
78.4215
78.4437
78.4625
78.476
78.4866
78.494
78.499
78.501
78.5011
78.4992
78.4944
78.4872
78.4767
78.4632
78.4443
78.4218
78.3887
78.3553
78.3009
78.2692
78.2538
78.2569
78.2707
78.2897
78.3078
78.3224
78.3078
78.2887
78.2666
78.2473
78.2391
78.2508
78.28
78.3349
78.3668
78.3995
78.4209
78.4392
78.452
78.4621
78.4691
78.4738
78.4757
78.4759
78.4743
78.47
78.4635
78.4537
78.4412
78.4232
78.4019
78.3692
78.3366
78.2813
78.2504
78.2356
78.2398
78.2542
78.2736
78.2922
78.3072
78.2865
78.2674
78.2446
78.2243
78.214
78.2231
78.2499
78.3043
78.3341
78.365
78.3844
78.4013
78.413
78.4223
78.4287
78.4331
78.435
78.4353
78.4341
78.4304
78.4248
78.4161
78.4052
78.3889
78.37
78.3394
78.3093
78.2545
78.2261
78.2139
78.2203
78.2359
78.2558
78.2747
78.2896
78.2625
78.2439
78.2208
78.1996
78.1864
78.1912
78.2132
78.264
78.2903
78.3176
78.3341
78.3489
78.359
78.3673
78.373
78.377
78.3788
78.3792
78.3784
78.3754
78.3709
78.3638
78.3548
78.3411
78.3255
78.2989
78.2727
78.2216
78.1981
78.1904
78.1998
78.2166
78.237
78.2557
78.2701
78.2367
78.2192
78.1964
78.1747
78.1587
78.1584
78.1739
78.2189
78.2414
78.2636
78.2763
78.2881
78.296
78.3028
78.3075
78.3109
78.3126
78.3132
78.3129
78.3109
78.3079
78.3027
78.2964
78.2862
78.2748
78.2536
78.2314
78.1863
78.1698
78.1676
78.18
78.1975
78.2179
78.2361
78.2495
78.2102
78.1942
78.1723
78.1506
78.1325
78.1264
78.1318
78.1584
78.1754
78.1917
78.2012
78.2102
78.2163
78.2217
78.2255
78.2284
78.2299
78.2307
78.2309
78.2299
78.2282
78.2249
78.221
78.214
78.2061
78.1911
78.1746
78.1485
78.1423
78.1467
78.1617
78.1796
78.1994
78.2165
78.2288
78.1842
78.1699
78.1497
78.1288
78.1108
78.1017
78.1012
78.1159
78.1266
78.1363
78.1416
78.1469
78.1505
78.1542
78.1568
78.1593
78.161
78.1621
78.1629
78.163
78.1628
78.1617
78.1606
78.1575
78.154
78.1458
78.1361
78.1224
78.1226
78.1306
78.1462
78.1635
78.1821
78.1978
78.2087
78.1594
78.1469
78.1288
78.1096
78.0926
78.082
78.0777
78.0843
78.0898
78.0947
78.0971
78.0999
78.1016
78.1038
78.1056
78.1074
78.1089
78.1102
78.1117
78.1129
78.1142
78.1151
78.1162
78.1161
78.1158
78.1128
78.1087
78.1035
78.1083
78.1183
78.1332
78.1495
78.1664
78.1803
78.1899
78.1365
78.1257
78.1098
78.0925
78.077
78.0665
78.0605
78.0622
78.0644
78.0664
78.0672
78.0681
78.0686
78.0697
78.0708
78.0722
78.0736
78.0752
78.0774
78.0796
78.0821
78.0845
78.0874
78.0894
78.0912
78.0915
78.0911
78.0912
78.0982
78.1085
78.1224
78.1373
78.1523
78.1645
78.1728
78.1157
78.1064
78.0927
78.0773
78.0635
78.0536
78.0473
78.0465
78.0468
78.047
78.0467
78.0466
78.0464
78.0469
78.0476
78.0488
78.0503
78.0523
78.055
78.058
78.0614
78.065
78.0689
78.0724
78.0756
78.078
78.08
78.0832
78.0909
78.1008
78.1135
78.1269
78.14
78.1505
78.1577
78.097
78.089
78.0773
78.0638
78.0514
78.0423
78.0363
78.0341
78.0333
78.0325
78.0316
78.0309
78.0304
78.0306
78.0312
78.0324
78.0341
78.0364
78.0395
78.0432
78.0474
78.0518
78.0565
78.0609
78.0653
78.069
78.0727
78.0776
78.0851
78.0945
78.1061
78.118
78.1294
78.1383
78.1445
78.0805
78.0735
78.0635
78.0518
78.0407
78.0321
78.0264
78.0236
78.0219
78.0205
78.0193
78.0182
78.0175
78.0176
78.0183
78.0195
78.0215
78.0242
78.0277
78.0319
78.0368
78.0419
78.0473
78.0526
78.0578
78.0626
78.0674
78.073
78.0804
78.0895
78.1001
78.1105
78.1203
78.1279
78.1333
78.0659
78.0598
78.0513
78.041
78.031
78.0229
78.0172
78.0139
78.0116
78.0098
78.0081
78.0068
78.0061
78.0061
78.0069
78.0083
78.0106
78.0138
78.0178
78.0227
78.0281
78.0339
78.04
78.046
78.0519
78.0575
78.0631
78.0692
78.0768
78.0855
78.095
78.1043
78.1128
78.1192
78.124
78.0532
78.0478
78.0405
78.0313
78.0222
78.0144
78.0085
78.0047
78.0019
77.9995
77.9975
77.996
77.9952
77.9953
77.9961
77.9978
78.0005
78.0042
78.0089
78.0144
78.0206
78.0271
78.0338
78.0404
78.047
78.0533
78.0596
78.0662
78.0739
78.0823
78.091
78.0992
78.1066
78.1122
78.1163
78.0423
78.0375
78.0311
78.0228
78.0144
78.0067
78.0005
77.996
77.9925
77.9896
77.9871
77.9853
77.9843
77.9844
77.9853
77.9873
77.9905
77.9949
78.0004
78.0066
78.0135
78.0208
78.0283
78.0357
78.0429
78.0499
78.0568
78.0641
78.0718
78.0799
78.0879
78.0952
78.1017
78.1067
78.1101
78.033
78.0287
78.023
78.0154
78.0074
77.9998
77.9931
77.9878
77.9835
77.9798
77.9767
77.9744
77.9732
77.9731
77.9742
77.9765
77.9803
77.9854
77.9918
77.999
78.0069
78.015
78.0233
78.0315
78.0395
78.0473
78.0549
78.0626
78.0704
78.0782
78.0856
78.0922
78.0981
78.1026
78.1052
78.0252
78.0215
78.0162
78.0091
78.0014
77.9936
77.9864
77.9801
77.9748
77.97
77.9661
77.9632
77.9614
77.9612
77.9624
77.9651
77.9695
77.9756
77.983
77.9914
78.0004
78.0096
78.0189
78.028
78.0369
78.0454
78.0536
78.0617
78.0696
78.0771
78.0841
78.0902
78.0956
78.0997
78.1018
78.0188
78.0158
78.0107
78.0039
77.9963
77.9882
77.9803
77.973
77.9664
77.9604
77.9554
77.9515
77.9491
77.9485
77.9497
77.9528
77.9581
77.9652
77.9739
77.9837
77.994
78.0046
78.015
78.0251
78.0349
78.0442
78.0531
78.0615
78.0694
78.0768
78.0834
78.0892
78.0942
78.0979
78.0996
78.0139
78.0116
78.0066
77.9998
77.9922
77.9837
77.975
77.9664
77.9584
77.9509
77.9444
77.9393
77.936
77.9349
77.936
77.9396
77.9457
77.9543
77.9645
77.9759
77.9878
77.9999
78.0117
78.023
78.0336
78.0437
78.0531
78.0618
78.0699
78.077
78.0834
78.0889
78.0938
78.0971
78.0986
78.0107
78.0087
78.0039
77.9971
77.9892
77.9802
77.9706
77.9607
77.9509
77.9416
77.9334
77.9266
77.9222
77.9204
77.9213
77.9253
77.9325
77.9426
77.9546
77.968
77.9818
77.9956
78.0089
78.0215
78.0332
78.0439
78.0538
78.0628
78.0708
78.0779
78.0841
78.0894
78.0942
78.0973
78.0985
78.009
78.0072
78.0026
77.9956
77.9873
77.9778
77.9672
77.9558
77.9443
77.9328
77.9226
77.9138
77.908
77.9055
77.9059
77.9102
77.9184
77.9304
77.9445
77.9602
77.9762
77.9919
78.0068
78.0207
78.0334
78.0449
78.0551
78.0642
78.0722
78.0792
78.0853
78.0907
78.0954
78.0984
78.0994
78.0088
78.0072
78.0026
77.9952
77.9867
77.9765
77.9649
77.952
77.9386
77.9247
77.9123
77.9009
77.8937
77.8902
77.8898
77.8942
77.9032
77.9177
77.9342
77.9527
77.971
77.9888
78.0054
78.0206
78.0343
78.0464
78.057
78.0662
78.0742
78.0811
78.0872
78.0926
78.0973
78.1002
78.101
78.01
78.0086
78.0039
77.9962
77.9872
77.9764
77.964
77.9497
77.9346
77.9182
77.9037
77.8898
77.8815
77.8776
77.8757
77.8796
77.8886
77.9057
77.9245
77.946
77.9667
77.9867
78.005
78.0214
78.0359
78.0485
78.0593
78.0686
78.0766
78.0835
78.0896
78.095
78.0999
78.1026
78.1032
78.0124
78.0113
78.0065
77.9985
77.9891
77.9777
77.9646
77.949
77.9323
77.9132
77.8966
77.8789
77.8702
77.8665
77.8617
77.864
77.8721
77.8935
77.9149
77.9401
77.9635
77.9857
78.0055
78.023
78.0382
78.0511
78.0621
78.0714
78.0794
78.0863
78.0925
78.0981
78.1029
78.1054
78.1058
78.0159
78.015
78.0103
78.002
77.9922
77.9804
77.9669
77.9505
77.9332
77.9123
77.8961
77.877
77.8716
77.8712
77.8621
77.8605
77.8634
77.887
77.9088
77.937
77.9622
77.9862
78.0072
78.0256
78.0411
78.0543
78.0653
78.0746
78.0825
78.0895
78.0958
78.1015
78.1062
78.1084
78.1087
78.0201
78.0195
78.015
78.0065
77.9964
77.9844
77.9707
77.9538
77.9362
77.9129
77.8967
77.8712
77.871
77.8778
77.8595
77.8509
77.847
77.8797
77.9032
77.9356
77.9625
77.9883
78.0101
78.029
78.0448
78.058
78.069
78.0782
78.0861
78.0932
78.0997
78.1052
78.1094
78.1115
78.1117
78.0249
78.0244
78.0203
78.0119
78.0017
77.9897
77.9764
77.9599
77.9437
77.9217
77.9112
77.8916
77.9047
77.9204
77.8946
77.8766
77.8591
77.8876
77.9067
77.9393
77.9661
77.9922
78.0143
78.0333
78.0491
78.0622
78.0732
78.0824
78.0905
78.0976
78.1038
78.1088
78.1125
78.1142
78.1143
78.029
78.0288
78.0255
78.018
78.008
77.9962
77.9834
77.9677
77.9532
77.9331
77.9259
77.9078
77.9287
77.9337
77.9197
77.8963
77.8743
77.8989
77.9151
77.9464
77.9723
77.9981
78.0198
78.0385
78.0542
78.0673
78.0783
78.0876
78.0955
78.1023
78.1079
78.1123
78.1154
78.1167
78.1165
78.0325
78.0327
78.0302
78.0242
78.0153
78.0037
77.9911
77.9757
77.9615
77.9417
77.9343
77.9152
77.9345
77.9293
77.9188
77.8991
77.8811
77.9063
77.9232
77.954
77.9795
78.0047
78.0261
78.0448
78.0604
78.0734
78.0843
78.0934
78.1008
78.1069
78.1118
78.1156
78.118
78.119
78.1185
78.0356
78.0363
78.0345
78.0299
78.0229
78.0127
78.0005
77.9855
77.9717
77.9533
77.947
77.9286
77.9453
77.941
77.9251
77.9092
77.8945
77.9199
77.9367
77.9653
77.9896
78.0139
78.0347
78.0528
78.0679
78.0804
78.0908
78.0993
78.1062
78.1116
78.1157
78.1186
78.1203
78.121
78.1204
78.0386
78.0394
78.0381
78.0352
78.0302
78.0225
78.0125
77.9993
77.9865
77.9708
77.965
77.9503
77.9708
77.9675
77.9436
77.9271
77.9176
77.9391
77.9557
77.9809
78.0035
78.0257
78.045
78.0617
78.0759
78.0878
78.0977
78.1057
78.112
78.1165
78.1196
78.1214
78.1223
78.1228
78.1224
78.0421
78.0423
78.0413
78.0402
78.0376
78.0326
78.0253
78.0153
78.0057
77.9955
77.9932
77.9927
78.0175
78.0182
77.9933
77.9753
77.9641
77.9712
77.9821
78.0005
78.0188
78.0379
78.0553
78.071
78.0846
78.0962
78.1056
78.113
78.1183
78.1217
78.1234
78.1241
78.1242
78.1246
78.1245
78.046
78.0456
78.0454
78.0458
78.0457
78.0436
78.0386
78.0309
78.0231
78.0151
78.0148
78.0188
78.0412
78.0453
78.0244
78.0055
77.9937
77.9944
78.0016
78.0163
78.0326
78.0499
78.0665
78.0817
78.0949
78.106
78.1148
78.1213
78.1255
78.1273
78.1276
78.1269
78.1264
78.1265
78.1268
78.0501
78.0493
78.0496
78.0518
78.0546
78.0551
78.0522
78.0461
78.0391
78.0332
78.0341
78.0391
78.0553
78.0594
78.0465
78.0307
78.0196
78.0171
78.0211
78.0319
78.0464
78.0624
78.078
78.0925
78.1053
78.1159
78.1241
78.1298
78.1329
78.1334
78.1321
78.13
78.1285
78.1284
78.129
78.0537
78.0532
78.0556
78.0606
78.0659
78.0689
78.0671
78.0611
78.0532
78.046
78.0433
78.0445
78.0519
78.0564
78.0483
78.035
78.026
78.0245
78.0298
78.0409
78.0553
78.0714
78.0873
78.102
78.1149
78.1256
78.1337
78.1391
78.1415
78.1406
78.1378
78.1344
78.1314
78.1304
78.1308
78.3513
78.3479
78.3439
78.3376
78.3315
78.3275
78.3284
78.3362
78.3486
78.3644
78.3806
78.3961
78.4094
78.4202
78.4281
78.4334
78.435
78.435
78.4333
78.4279
78.4198
78.4086
78.3947
78.3782
78.3607
78.3431
78.3286
78.3185
78.3156
78.3181
78.3235
78.3297
78.3353
78.3385
78.3416
78.3573
78.3495
78.3419
78.3327
78.323
78.3147
78.3114
78.3168
78.3272
78.3426
78.359
78.3752
78.3888
78.3998
78.4077
78.413
78.4148
78.4148
78.413
78.4076
78.3994
78.3881
78.3739
78.3567
78.3383
78.3208
78.3078
78.3002
78.3015
78.3083
78.3174
78.3265
78.3343
78.3405
78.3474
78.3563
78.3457
78.3326
78.3164
78.2997
78.2862
78.2809
78.2918
78.3084
78.333
78.3547
78.3741
78.3892
78.4014
78.41
78.4158
78.4181
78.4181
78.4158
78.41
78.4012
78.3889
78.3733
78.3532
78.3305
78.3034
78.2833
78.2695
78.2719
78.2834
78.2989
78.3146
78.3285
78.3392
78.3487
78.3481
78.3345
78.316
78.2945
78.2754
78.2647
78.2671
78.3027
78.3352
78.3696
78.3933
78.414
78.4286
78.4401
78.448
78.4534
78.4556
78.4557
78.4534
78.4481
78.4401
78.4285
78.4138
78.3929
78.3685
78.3332
78.298
78.2584
78.2527
78.2602
78.2769
78.2969
78.3162
78.3317
78.3436
78.3345
78.3195
78.2989
78.2778
78.2621
78.2597
78.2724
78.3213
78.3513
78.3825
78.4035
78.4225
78.4363
78.4475
78.4553
78.4606
78.4629
78.4628
78.4606
78.4552
78.4473
78.4359
78.4217
78.4024
78.3806
78.3489
78.3177
78.2669
78.2511
78.2501
78.2628
78.2815
78.3022
78.32
78.3329
78.3184
78.3023
78.2807
78.2609
78.2482
78.2518
78.2708
78.3276
78.3584
78.392
78.4136
78.4331
78.4467
78.4576
78.4651
78.47
78.4721
78.4721
78.4701
78.4651
78.4576
78.4466
78.4328
78.413
78.3908
78.3566
78.325
78.2671
78.2458
78.2394
78.2492
78.2663
78.2871
78.306
78.3195
78.3003
78.2832
78.2604
78.241
78.2291
78.2347
78.2545
78.3137
78.3438
78.3783
78.3999
78.4195
78.433
78.4439
78.4513
78.4564
78.4585
78.4586
78.4566
78.4518
78.4446
78.4338
78.4203
78.4007
78.3788
78.344
78.3131
78.2531
78.2315
78.2236
78.2329
78.2494
78.2705
78.2904
78.3043
78.2805
78.2626
78.2385
78.2183
78.2058
78.2115
78.231
78.2929
78.322
78.3564
78.3769
78.3958
78.4086
78.419
78.4261
78.4308
78.4329
78.4331
78.4315
78.4271
78.4205
78.4106
78.3981
78.3796
78.3591
78.3248
78.2952
78.2328
78.2116
78.2039
78.214
78.231
78.253
78.2736
78.2878
78.2591
78.2408
78.2153
78.1934
78.1789
78.1824
78.1997
78.2625
78.2894
78.3217
78.34
78.3573
78.3689
78.3785
78.3849
78.3894
78.3915
78.3918
78.3905
78.3868
78.3811
78.3723
78.3616
78.345
78.3272
78.2954
78.2683
78.2052
78.1864
78.181
78.1932
78.2116
78.2348
78.2561
78.2703
78.2365
78.2183
78.1915
78.1675
78.1501
78.1496
78.1617
78.2211
78.2448
78.2728
78.2879
78.303
78.3129
78.3215
78.3272
78.3313
78.3332
78.3336
78.3328
78.3298
78.3253
78.3181
78.3095
78.2956
78.2815
78.2544
78.2309
78.1714
78.158
78.1568
78.1719
78.1922
78.2166
78.2383
78.2521
78.2133
78.1959
78.1684
78.1427
78.1222
78.117
78.122
78.1752
78.198
78.2202
78.2314
78.2432
78.2507
78.2575
78.2621
78.2656
78.2673
78.268
78.2677
78.2659
78.263
78.258
78.2523
78.2423
78.2325
78.2114
78.1889
78.136
78.1303
78.1341
78.1522
78.1742
78.1992
78.2207
78.2337
78.1902
78.1742
78.1471
78.1205
78.0973
78.0869
78.0824
78.1057
78.123
78.138
78.1461
78.1547
78.1602
78.1655
78.1692
78.172
78.1734
78.1742
78.1744
78.1736
78.1723
78.1695
78.1665
78.1602
78.154
78.1404
78.1237
78.1012
78.1055
78.115
78.1355
78.1586
78.1833
78.2039
78.2157
78.168
78.1537
78.1284
78.1025
78.0789
78.0673
78.0614
78.0729
78.0833
78.0904
78.0932
78.0968
78.099
78.1021
78.1043
78.1069
78.109
78.1103
78.1111
78.1114
78.1117
78.1114
78.1119
78.1107
78.1096
78.104
78.0948
78.0845
78.0908
78.1024
78.1235
78.146
78.1691
78.1881
78.1985
78.147
78.1348
78.1119
78.0878
78.0653
78.0528
78.0463
78.051
78.0557
78.058
78.058
78.0587
78.0588
78.0601
78.0613
78.0631
78.0646
78.0661
78.0676
78.0692
78.0713
78.0733
78.0763
78.0783
78.0804
78.0799
78.0768
78.0736
78.0816
78.0944
78.1145
78.1357
78.1567
78.1737
78.1825
78.1275
78.1173
78.0972
78.0754
78.0551
78.0422
78.0356
78.0377
78.0398
78.04
78.0389
78.038
78.0369
78.0369
78.0373
78.0383
78.0396
78.0413
78.0437
78.0464
78.05
78.0537
78.0582
78.0621
78.0656
78.0674
78.0671
78.0676
78.0762
78.0896
78.1079
78.1272
78.1458
78.1605
78.1679
78.1096
78.1012
78.0839
78.0647
78.0465
78.0341
78.0279
78.0287
78.0298
78.0293
78.0279
78.0262
78.0245
78.0238
78.0238
78.0245
78.0258
78.0279
78.0309
78.0345
78.0389
78.0436
78.0489
78.0537
78.0579
78.0608
78.0621
78.0645
78.0733
78.0863
78.1029
78.1201
78.1362
78.1488
78.1547
78.0932
78.0864
78.0718
78.055
78.0388
78.0273
78.0212
78.0212
78.022
78.0214
78.02
78.0183
78.0168
78.016
78.016
78.0166
78.0181
78.0205
78.0239
78.0281
78.033
78.0382
78.0437
78.0488
78.0532
78.0567
78.0588
78.0628
78.0719
78.084
78.0989
78.114
78.1278
78.1383
78.1431
78.0784
78.0729
78.0607
78.0461
78.0317
78.0211
78.0149
78.0141
78.0148
78.0142
78.0131
78.0117
78.0106
78.0102
78.0103
78.0111
78.0128
78.0155
78.0192
78.0238
78.0291
78.0346
78.0402
78.0453
78.0498
78.0536
78.0568
78.0621
78.071
78.0823
78.0956
78.1088
78.1204
78.1291
78.133
78.0651
78.0606
78.0504
78.0378
78.0249
78.015
78.0088
78.0071
78.0074
78.0069
78.006
78.005
78.0041
78.0039
78.0043
78.0053
78.0073
78.0103
78.0145
78.0195
78.0252
78.0311
78.0369
78.0424
78.0471
78.0514
78.0556
78.0617
78.0703
78.0809
78.0928
78.1042
78.1141
78.1213
78.1243
78.0532
78.0496
78.041
78.03
78.0184
78.0089
78.0026
78
77.9996
77.999
77.9981
77.9971
77.9964
77.9964
77.997
77.9983
78.0007
78.0043
78.0091
78.0147
78.0208
78.0271
78.0334
78.0393
78.0446
78.0495
78.0547
78.0612
78.0698
78.0798
78.0904
78.1003
78.1087
78.1147
78.117
78.0428
78.0398
78.0326
78.0227
78.0122
78.0029
77.9962
77.9927
77.9913
77.9903
77.9892
77.9881
77.9873
77.9875
77.9883
77.9899
77.9929
77.9971
78.0026
78.0089
78.0157
78.0227
78.0294
78.0359
78.0419
78.0477
78.0537
78.0608
78.0694
78.0789
78.0884
78.0971
78.1043
78.1093
78.1109
78.0336
78.0313
78.0251
78.0162
78.0063
77.9971
77.9899
77.9852
77.9826
77.9807
77.9791
77.9776
77.9767
77.9768
77.9777
77.9798
77.9834
77.9885
77.9949
78.0022
78.0099
78.0177
78.0252
78.0324
78.0392
78.0459
78.0528
78.0605
78.0692
78.0782
78.0869
78.0945
78.1008
78.1051
78.1063
78.0259
78.0242
78.0186
78.0104
78.001
77.9916
77.9836
77.9777
77.9735
77.9704
77.9678
77.9656
77.9644
77.9643
77.9653
77.9678
77.9723
77.9784
77.986
77.9944
78.0033
78.0122
78.0208
78.029
78.0367
78.0444
78.0522
78.0605
78.0692
78.0778
78.0858
78.0927
78.0984
78.102
78.103
78.0197
78.0184
78.0132
78.0055
77.9963
77.9867
77.9777
77.9703
77.9643
77.9594
77.9554
77.9522
77.9502
77.9498
77.9508
77.9538
77.9593
77.9668
77.9758
77.9858