/*--------------------------------*- C++ -*----------------------------------*\
| =========                 |                                                 |
| \\      /  F ield         | OpenFOAM: The Open Source CFD Toolbox           |
|  \\    /   O peration     | Version:  2.3.1                                 |
|   \\  /    A nd           | Web:      www.OpenFOAM.org                      |
|    \\/     M anipulation  |                                                 |
\*---------------------------------------------------------------------------*/
FoamFile
{
    version     2.0;
    format      ascii;
    class       surfaceScalarField;
    location    "600";
    object      phi;
}
// * * * * * * * * * * * * * * * * * * * * * * * * * * * * * * * * * * * * * //

dimensions      [0 3 -1 0 0 0 0];

internalField   nonuniform List<scalar> 
137378
(
6.02576e-06
-0.000142765
0.000136739
-0.000153796
-9.5534e-05
0.000255356
-0.000446431
-3.94253e-05
0.00033206
-0.000829118
-7.6529e-05
0.000459216
-0.00123952
-0.000196453
0.000606853
-0.00161003
-0.000382919
0.000753428
-0.00187082
-0.000613677
0.000874471
-0.00197845
-0.000847029
0.000954655
-0.00195182
-0.00102897
0.00100235
-0.00181872
-0.00116225
0.00102915
-0.0016232
-0.0012424
0.00104688
-0.00138664
-0.00129443
0.00105788
-0.00113029
-0.00132305
0.0010667
-0.000859363
-0.00134307
0.00107214
-0.000579381
-0.00135604
0.00107606
-0.000289553
-0.00136607
0.00107625
4.61803e-06
-0.00137007
0.0010759
0.000299359
-0.00136985
0.00107511
0.000590904
-0.00136585
0.00107431
0.000873654
-0.00135599
0.00107324
0.00114847
-0.00134347
0.00106865
0.00141005
-0.00132459
0.00106301
0.00165363
-0.0012982
0.00105462
0.00186032
-0.00125139
0.0010447
0.00200947
-0.00117847
0.00102933
0.00205813
-0.00105528
0.00100661
0.00197717
-0.00088422
0.000965185
0.00174362
-0.000660295
0.000893844
0.00139466
-0.000432434
0.000781393
0.000992965
-0.000238042
0.000639739
0.000600191
-9.73199e-05
0.000490094
0.000266584
-1.71791e-05
0.000350786
3.75347e-05
-1.17385e-05
0.000240788
-5.49184e-05
-8.94565e-05
0.00018191
-0.000142281
8.73629e-05
-0.000391884
-2.1023e-05
0.000270143
-0.00104281
5.27867e-05
0.000502607
-0.00170893
1.3614e-05
0.000613084
-0.00232687
-0.000171679
0.000713086
-0.0028388
-0.000475511
0.00079099
-0.00318128
-0.000858008
0.000817565
-0.00330739
-0.00127635
0.000788789
-0.00321196
-0.00166124
0.000718789
-0.00296842
-0.00192445
0.000651938
-0.00263233
-0.00209918
0.000600839
-0.00226451
-0.00218773
0.000577502
-0.00188307
-0.00223779
0.000561915
-0.00150623
-0.00225772
0.000557831
-0.00113229
-0.00226946
0.000552454
-0.000760692
-0.00227561
0.000547973
-0.000385016
-0.00228161
0.000539865
7.12067e-06
-0.00228998
0.000527781
0.000399725
-0.00228977
0.000527313
0.000777546
-0.00228154
0.000537863
0.0011531
-0.00227616
0.000544619
0.00153253
-0.00227092
0.000548012
0.00191602
-0.00226096
0.000552886
0.0023055
-0.00224424
0.000556567
0.00268622
-0.00220198
0.000569873
0.00304127
-0.00212455
0.000591016
0.0033129
-0.00196654
0.000639639
0.00344635
-0.00172335
0.000705675
0.00336706
-0.0013606
0.000779594
0.00307698
-0.000956874
0.000814522
0.00261834
-0.000575531
0.00079613
0.00205066
-0.000256317
0.000726677
0.00143754
-2.68149e-05
0.000622757
0.000823697
8.82465e-05
0.000513857
0.000268178
6.81229e-05
0.00039794
-3.78827e-05
0.000163781
-0.000634001
0.000238734
0.000374245
-0.00145492
0.000295671
0.000578038
-0.00221776
0.000129204
0.000647246
-0.00288734
-0.000165514
0.000663417
-0.00341346
-0.000552708
0.000603311
-0.00372812
-0.000985108
0.000441764
-0.00377145
-0.00142836
0.000195342
-0.00353548
-0.00181762
-7.95917e-05
-0.00315848
-0.0020395
-0.000261957
-0.00271512
-0.00216867
-0.000373871
-0.00228489
-0.00221619
-0.000401766
-0.00186921
-0.00223671
-0.000416756
-0.00147992
-0.00223654
-0.00041047
-0.00110496
-0.00223317
-0.000411263
-0.000739238
-0.00222861
-0.000412719
-0.000373193
-0.00222628
-0.000421377
8.17882e-06
-0.00223133
-0.000440022
0.000389763
-0.00223163
-0.000439723
0.000757906
-0.00222734
-0.000422344
0.0011278
-0.00223099
-0.000415056
0.00150835
-0.00223695
-0.00041452
0.00190341
-0.00224235
-0.000413669
0.00232442
-0.00224553
-0.000419726
0.00276448
-0.00223151
-0.000410528
0.00322343
-0.00219199
-0.000391505
0.00362711
-0.00207872
-0.000291509
0.00390383
-0.0018792
-0.000120863
0.00391542
-0.00151922
0.00014704
0.003667
-0.00109806
0.000389611
0.00321065
-0.000681312
0.000562125
0.00261544
-0.000298794
0.000637693
0.00194005
1.77e-05
0.000630879
0.00122562
0.000233181
0.000569489
0.000500654
0.000326955
0.000466138
0.000221808
0.000240964
-0.000763854
0.000533233
0.000469355
-0.00172781
0.000652033
0.000607592
-0.00261765
0.000462437
0.000556612
-0.0033756
0.000189437
0.000403
-0.00393719
-0.000120907
0.000129783
-0.00420852
-0.000436354
-0.000277423
-0.00411601
-0.000721264
-0.000799608
-0.00365642
-0.000921343
-0.00135587
-0.00312943
-0.000981436
-0.00158506
-0.0026036
-0.00100949
-0.001685
-0.00215395
-0.00101122
-0.00165462
-0.00174049
-0.00100611
-0.00164407
-0.00136771
-0.000999829
-0.00160949
-0.00101369
-0.0009916
-0.00159559
-0.000671615
-0.000982907
-0.00158777
-0.000333577
-0.000972922
-0.0015914
7.98014e-06
-0.000965021
-0.00160787
0.000350077
-0.000968335
-0.00160539
0.000690935
-0.000981507
-0.00158669
0.00103809
-0.000997204
-0.00158094
0.00139879
-0.00101192
-0.00158573
0.00177792
-0.00102661
-0.00159487
0.00219525
-0.00103895
-0.00162392
0.00265426
-0.00104688
-0.00164364
0.00318876
-0.00104904
-0.00167745
0.00373408
-0.00102842
-0.00159562
0.00422558
-0.000983655
-0.00138705
0.0043761
-0.000808438
-0.000861307
0.00417912
-0.000551396
-0.000349694
0.00370298
-0.000257829
5.26605e-05
0.00304278
3.56778e-05
0.000325731
0.00227199
0.000309677
0.000478806
0.00144038
0.000530371
0.000534424
0.000598128
0.000666077
0.000503131
0.000509611
0.000310326
-0.000871476
0.000840596
0.000564114
-0.00194296
0.00110243
0.000621089
-0.00290905
0.000975262
0.000453262
-0.00369285
0.000802956
0.00017028
-0.00421524
0.000627063
-0.000225578
-0.00438173
0.00045174
-0.000721604
-0.00415596
0.000298383
-0.00124541
-0.00357026
0.000191332
-0.00169838
-0.0030468
0.000152654
-0.00165755
-0.0025531
0.00011616
-0.00161935
-0.00213241
9.72261e-05
-0.00152914
-0.00173836
8.78205e-05
-0.00148798
-0.00137505
8.44321e-05
-0.00144757
-0.00102443
8.47144e-05
-0.00142693
-0.000683316
8.62117e-05
-0.00141023
-0.00034245
8.67551e-05
-0.00140054
5.53836e-06
8.36327e-05
-0.00139664
0.000354192
7.85891e-05
-0.00139558
0.000697821
7.26496e-05
-0.00139779
0.00104405
6.20776e-05
-0.00140551
0.00140197
4.98053e-05
-0.00141964
0.00177439
3.78416e-05
-0.00143686
0.00217826
2.92895e-05
-0.00147211
0.00261158
2.86491e-05
-0.00150886
0.00311378
3.76618e-05
-0.0015889
0.00364625
6.4574e-05
-0.00162546
0.004245
9.42302e-05
-0.00167663
0.00451092
0.00018426
-0.00125863
0.00441433
0.000319661
-0.000774466
0.00398921
0.000478337
-0.000311037
0.00332359
0.000639157
6.21383e-05
0.00250403
0.000805257
0.000323976
0.00159743
0.000957075
0.000479904
0.000670994
0.00106277
0.00052974
0.000790204
0.000390401
-0.000954222
0.00115427
0.000640548
-0.00210095
0.00159763
0.000651526
-0.00310925
0.00155258
0.000430977
-0.00390139
0.00148334
0.000111757
-0.00440312
0.00142971
-0.000300922
-0.00453063
0.00137381
-0.000794562
-0.00425709
0.00131418
-0.00128933
-0.00362251
0.00126083
-0.00170408
-0.00307369
0.00124301
-0.00163918
-0.00255276
0.00122248
-0.00162725
-0.00210766
0.0012194
-0.00156728
-0.00170015
0.00122188
-0.00154156
-0.00133244
0.00122998
-0.00151326
-0.000984461
0.00123761
-0.00150088
-0.00065152
0.0012445
-0.00149123
-0.000324723
0.00124756
-0.0014876
-5.07424e-07
0.00124753
-0.00148811
0.000324207
0.00124175
-0.00148787
0.000653073
0.0012309
-0.00148712
0.000989908
0.00121582
-0.00149058
0.0013438
0.00119578
-0.00149987
0.00171954
0.0011737
-0.0015116
0.00213694
0.00115003
-0.00153813
0.00259531
0.00113173
-0.00156145
0.00312838
0.00111838
-0.00161378
0.00368996
0.001123
-0.00162001
0.00433416
0.00112773
-0.0016777
0.00464138
0.00116787
-0.00129083
0.00457712
0.00121662
-0.000832694
0.0041699
0.00126456
-0.000379004
0.00350321
0.00130453
1.31653e-06
0.00266089
0.00136348
0.000284091
0.00171044
0.00143425
0.000473283
0.000725947
0.00148315
0.000564105
0.0010579
0.000458246
-0.000978122
0.00144353
0.000688863
-0.00215286
0.00208275
0.000689621
-0.003174
0.00211391
0.000459809
-0.00396477
0.00212678
0.000147334
-0.0044552
0.00216059
-0.000240448
-0.00456667
0.00218684
-0.000701556
-0.00428096
0.00218934
-0.00116087
-0.00363999
0.00217961
-0.00155973
-0.00308144
0.00220121
-0.00151676
-0.00255236
0.00221798
-0.00152458
-0.00209899
0.0022454
-0.00147936
-0.00168973
0.00226978
-0.00145717
-0.00132266
0.00229399
-0.00143108
-0.000978198
0.00231237
-0.00141922
-0.000649553
0.00232643
-0.00141057
-0.000328014
0.00233365
-0.00140763
-5.87958e-06
0.00233485
-0.00140946
0.00031664
0.00232823
-0.001409
0.000639693
0.00231432
-0.00140647
0.000971422
0.00229295
-0.00140886
0.00132096
0.0022632
-0.00141695
0.00169543
0.00222743
-0.00142821
0.00211443
0.00218412
-0.00145309
0.0025803
0.00213965
-0.00147379
0.00312184
0.0020909
-0.00151406
0.00369405
0.00205311
-0.00150232
0.00434495
0.00201231
-0.00153548
0.004661
0.00200698
-0.00115516
0.00460777
0.00199496
-0.000725112
0.00421015
0.0019652
-0.000303023
0.00354837
0.00192063
4.56891e-05
0.00270411
0.00189603
0.000311718
0.00174249
0.00189736
0.000498507
0.000739661
0.0018875
0.000598475
0.00129461
0.00050296
-0.00095386
0.00168813
0.000709258
-0.00212102
0.00252703
0.000722879
-0.00313732
0.00262567
0.000504534
-0.00392397
0.00270553
0.000207905
-0.00441568
0.002812
-0.000159688
-0.00453314
0.00291324
-0.000608936
-0.00425527
0.00297753
-0.00106607
-0.00361555
0.00301877
-0.00147889
-0.00305128
0.00309157
-0.00145463
-0.00251896
0.00315673
-0.00147108
-0.00206435
0.00322145
-0.00143065
-0.0016582
0.00327268
-0.00140905
-0.00129644
0.00331564
-0.00138341
-0.00095916
0.00334648
-0.00137139
-0.000638393
0.00336862
-0.00136296
-0.000325419
0.0033806
-0.00135992
-1.18957e-05
0.00338324
-0.00136191
0.000301766
0.00337589
-0.00136132
0.000615438
0.00335893
-0.00135828
0.000938053
0.0033309
-0.00136056
0.00127907
0.00329069
-0.00136851
0.00164692
0.00323975
-0.00138017
0.00206177
0.0031745
-0.00140523
0.00252784
0.00309969
-0.00142611
0.00307286
0.00300984
-0.00146396
0.00365209
0.00291993
-0.00144606
0.00430555
0.00282339
-0.00146455
0.00461448
0.00276439
-0.00106634
0.00455326
0.00268945
-0.000633264
0.00415154
0.00258521
-0.000218297
0.00349339
0.0024674
0.000111376
0.00265755
0.00237304
0.000358832
0.00170594
0.00231657
0.000532406
0.000716765
0.00225217
0.000624504
0.0014881
0.000523277
-0.000893084
0.00187574
0.000705471
-0.00202395
0.00291202
0.000745875
-0.00302145
0.00307124
0.00055193
-0.00380083
0.0032081
0.000276809
-0.00429932
0.00338218
-7.16959e-05
-0.00443274
0.00356328
-0.000516624
-0.00417039
0.0037034
-0.000988229
-0.0035345
0.00381088
-0.001428
-0.00297123
0.00393783
-0.00140953
-0.00244669
0.00405445
-0.00142226
-0.00200215
0.00415575
-0.00137884
-0.00160763
0.00423381
-0.00135565
-0.00125728
0.004295
-0.00132971
-0.000931399
0.00433832
-0.00131773
-0.000621749
0.00436864
-0.00130967
-0.000320193
0.00438578
-0.00130674
-1.86943e-05
0.00439049
-0.00130875
0.000282597
0.0043826
-0.001308
0.000583767
0.00436231
-0.00130454
0.000893684
0.0043275
-0.00130652
0.00122161
0.00427703
-0.00131427
0.00157641
0.00421123
-0.00132628
0.00197829
0.00412511
-0.00135248
0.00243314
0.00402081
-0.00137597
0.00297038
0.00389175
-0.00141915
0.00354974
0.003748
-0.00140741
0.00420386
0.00359472
-0.00142546
0.00449968
0.00346719
-0.000998612
0.00442271
0.00331384
-0.000547428
0.00401275
0.00312635
-0.000131177
0.00335932
0.00293696
0.000183876
0.00253962
0.00278077
0.000411964
0.0016142
0.00267631
0.000565672
0.000664861
0.00256248
0.000639037
0.00163089
0.000522064
-0.000805656
0.00199987
0.000681533
-0.00187411
0.00322451
0.000755961
-0.00283637
0.00343816
0.000595337
-0.00359905
0.00362352
0.000347272
-0.00410136
0.00386278
2.17168e-05
-0.00425252
0.00412845
-0.000414011
-0.00401291
0.00436271
-0.000898914
-0.00339374
0.00455652
-0.00136481
-0.00284295
0.0047324
-0.00134536
-0.00233922
0.00489605
-0.00134533
-0.00191561
0.00502759
-0.00129546
-0.00154071
0.00512922
-0.00127031
-0.00120733
0.00520619
-0.00124457
-0.000896694
0.00526092
-0.00123323
-0.000601027
0.00529871
-0.00122574
-0.000313274
0.00532067
-0.00122264
-2.60419e-05
0.00532727
-0.00122401
0.00026056
0.00531877
-0.00122277
0.000546513
0.00529519
-0.00121883
0.000840436
0.00525395
-0.00122038
0.00115111
0.00519411
-0.00122775
0.00148714
0.0051149
-0.0012397
0.00186809
0.00501102
-0.00126686
0.00230108
0.00488145
-0.00129363
0.00281764
0.00472088
-0.0013457
0.00338549
0.00452918
-0.00134903
0.00402647
0.00432642
-0.00137268
0.00430139
0.00411064
-0.000918365
0.00420698
0.00385956
-0.000451302
0.0037924
0.00358031
-3.93844e-05
0.00315203
0.00331963
0.000257696
0.00236037
0.00310868
0.000463756
0.0014779
0.00296602
0.000592755
0.000591439
0.00280836
0.000640578
0.00171949
0.000502838
-0.000701655
0.00206049
0.00064103
-0.00168587
0.00345701
0.000751713
-0.00259668
0.00371839
0.000630583
-0.00333088
0.00394196
0.000415764
-0.00382869
0.00423915
0.000121431
-0.00399486
0.00458682
-0.000292206
-0.00378539
0.00493143
-0.000778191
-0.00320009
0.00524397
-0.00127275
-0.00267065
0.00546847
-0.00126551
-0.00219789
0.00566983
-0.00124655
-0.0018042
0.00582035
-0.00118644
-0.001456
0.00593844
-0.00115744
-0.00114494
0.00602574
-0.0011306
-0.000853634
0.00608883
-0.00111921
-0.000575252
0.00613195
-0.00111162
-0.000304218
0.00615741
-0.00110777
-3.42584e-05
0.00616533
-0.00110802
0.000234552
0.00615608
-0.00110612
0.000502222
0.00612942
-0.0011019
0.000776724
0.00608297
-0.00110352
0.001066
0.00601629
-0.00111146
0.001378
0.00592745
-0.00112455
0.00173119
0.00581246
-0.00115464
0.00213378
0.00566611
-0.00118725
0.00262004
0.00548718
-0.00125256
0.003168
0.00525813
-0.00127691
0.00377718
0.00500632
-0.00128908
0.00402198
0.00466809
-0.000802259
0.00391162
0.00430191
-0.000332003
0.00349977
0.00393155
6.06195e-05
0.00288347
0.00360523
0.000330696
0.00213302
0.00334959
0.000509543
0.00130916
0.00317998
0.000609897
0.000504413
0.0029846
0.000628509
0.00175491
0.000468999
-0.000588255
0.00206178
0.00058697
-0.00146862
0.00360499
0.000732383
-0.00230793
0.00390354
0.000654153
-0.00299257
0.00414561
0.000480993
-0.00346205
0.00447387
0.000234769
-0.00362614
0.00486752
-0.000116611
-0.00345074
0.00528006
-0.000524029
-0.00295417
0.0056631
-0.000915692
-0.00247545
0.00592743
-0.000937686
-0.00204541
0.00615737
-0.00091758
-0.00168554
0.00632434
-0.000863853
-0.00136619
0.00645765
-0.000838549
-0.001079
0.00655499
-0.000816444
-0.00080834
0.00662637
-0.000808197
-0.000548343
0.0066744
-0.000802456
-0.000295003
0.00670208
-0.000798009
-4.31366e-05
0.00670944
-0.000795981
0.00020711
0.00669826
-0.000792424
0.000455443
0.00666794
-0.000786852
0.000709377
0.00661607
-0.000787032
0.000976208
0.00654264
-0.000793183
0.00126324
0.00644437
-0.000803954
0.00158743
0.00631907
-0.0008308
0.00195695
0.00615757
-0.000860981
0.00240163
0.00596265
-0.000920145
0.00289904
0.00570457
-0.000943855
0.00341749
0.00541126
-0.000923384
0.00362618
0.00499995
-0.000540545
0.00351631
0.00456147
-0.000149689
0.00312989
0.00413835
0.00017962
0.00255805
0.00377445
0.000402621
0.00186683
0.00349533
0.000545481
0.00111784
0.00331474
0.000614234
0.000410212
0.00308935
0.000602879
0.00174151
0.000423606
-0.000474674
0.00201392
0.000522532
-0.00124016
0.00367272
0.000697753
-0.00199565
0.00399824
0.00066079
-0.0026195
0.00423905
0.000530415
-0.00305089
0.00457099
0.000334266
-0.00321076
0.00497629
5.11012e-05
-0.00307185
0.00541054
-0.000269397
-0.0026671
0.00582067
-0.000562325
-0.00225032
0.00610725
-0.000596602
-0.00187004
0.00634878
-0.000571678
-0.00154886
0.00652218
-0.00051902
-0.0012626
0.00666298
-0.000491589
-0.00100325
0.00676608
-0.000470442
-0.00075702
0.00684324
-0.000463104
-0.000519336
0.00689484
-0.00045812
-0.000286574
0.0069249
-0.000455584
-5.44298e-05
0.00693255
-0.000455251
0.000175703
0.00691941
-0.000451284
0.000403
0.00688485
-0.000444202
0.000634185
0.00682715
-0.000442262
0.000875933
0.0067473
-0.000446405
0.00113496
0.00664132
-0.000455979
0.00142673
0.00650929
-0.000481983
0.00175866
0.00633937
-0.000513731
0.00215409
0.00613687
-0.000569647
0.00258868
0.00586544
-0.000595463
0.0030128
0.00554748
-0.000560351
0.00318165
0.0051068
-0.000275694
0.00307286
0.00464224
2.80192e-05
0.00272096
0.00420328
0.000286966
0.00220346
0.00383129
0.000460666
0.00158204
0.00355111
0.00056564
0.000917962
0.00337502
0.000603798
0.000315925
0.00312662
0.000564764
0.00168757
0.000369868
-0.000367778
0.00193009
0.000451605
-0.00101549
0.00367076
0.000649678
-0.00168171
0.00401542
0.000649038
-0.00224014
0.00423977
0.000557712
-0.00263061
0.00455389
0.000407574
-0.00278554
0.00494313
0.000188084
-0.00268315
0.00536212
-5.39648e-05
-0.00236036
0.00576331
-0.00026543
-0.00200724
0.00605197
-0.00029784
-0.00167905
0.00628869
-0.000268105
-0.00139798
0.00645893
-0.000217828
-0.0011465
0.00660051
-0.000189012
-0.000917523
0.00670513
-0.00016802
-0.000698686
0.00678474
-0.000160335
-0.000486079
0.00683788
-0.000155649
-0.000276741
0.00686902
-0.000153462
-6.74007e-05
0.0068762
-0.000152989
0.00013974
0.00686081
-0.000148541
0.000343355
0.00682225
-0.000141017
0.00054935
0.0067596
-0.000138443
0.000763928
0.00667494
-0.000142217
0.000993261
0.0065641
-0.000152114
0.00125129
0.0064289
-0.000177631
0.00154422
0.00625662
-0.000210184
0.00188803
0.00605504
-0.000261977
0.00225791
0.00578577
-0.000290215
0.00259754
0.0054628
-0.000254944
0.00272594
0.00502844
-5.0046e-05
0.00261833
0.00457584
0.000174008
0.00230313
0.00415011
0.000368372
0.00184344
0.00379339
0.00049759
0.00129631
0.00353051
0.000567723
0.000721432
0.00337091
0.00057899
0.000226946
0.00310455
0.000516557
0.00160328
0.000311234
-0.000271792
0.00182352
0.000378366
-0.000805562
0.0036129
0.000591625
-0.00138278
0.00397183
0.000620811
-0.00187607
0.00417049
0.000562567
-0.00222639
0.00445273
0.000451467
-0.00237489
0.00480766
0.000283973
-0.00230621
0.00519087
0.000102569
-0.0020524
0.0055591
-4.95949e-05
-0.00175814
0.00583403
-7.63213e-05
-0.0014798
0.00605655
-4.61918e-05
-0.00123877
0.00621874
-8.49921e-07
-0.00102264
0.00635547
2.89116e-05
-0.000825147
0.00645729
5.03432e-05
-0.000635376
0.00653537
5.95968e-05
-0.000449846
0.00658729
6.50662e-05
-0.000266334
0.00661741
6.81025e-05
-8.26237e-05
0.00662285
6.96401e-05
9.89111e-05
0.00660505
7.42269e-05
0.000276799
0.00656337
8.0988e-05
0.000456132
0.0064975
8.27665e-05
0.00064265
0.00641036
7.80534e-05
0.000841904
0.00629797
6.68736e-05
0.00106611
0.00616308
4.16086e-05
0.00132018
0.00599342
9.13223e-06
0.00161437
0.00579734
-3.64921e-05
0.00192409
0.00553936
-6.33057e-05
0.00219186
0.00522695
-3.19263e-05
0.0022835
0.00482245
0.000114352
0.00217903
0.00440314
0.000277181
0.00189946
0.00400998
0.000419694
0.00149679
0.00368425
0.00051181
0.00102354
0.00345108
0.000552694
0.000537234
0.00331513
0.000542085
0.000146883
0.00303338
0.000461523
0.00149909
0.000251077
-0.000188521
0.00170547
0.000306574
-0.000616776
0.00351347
0.000527689
-0.00110918
0.00388432
0.000579913
-0.00154072
0.00405371
0.000548322
-0.00185384
0.00429719
0.000468659
-0.00199589
0.00460934
0.000340377
-0.00195505
0.0049482
0.000201829
-0.00175882
0.00527452
8.83549e-05
-0.00151748
0.00552646
6.62314e-05
-0.00128563
0.00573059
9.41021e-05
-0.00108297
0.00588209
0.000134
-0.000900734
0.00600903
0.000164206
-0.000733703
0.00610399
0.000186274
-0.000572715
0.00617692
0.000197461
-0.000414644
0.00622495
0.000204261
-0.000257931
0.00625202
0.000208677
-0.00010119
0.00625463
0.000211475
5.36891e-05
0.00623419
0.000215974
0.000205483
0.00619005
0.000221532
0.000358453
0.00612244
0.000222083
0.000517909
0.00603477
0.000216142
0.000688727
0.00592353
0.000203627
0.00088103
0.0057921
0.00017868
0.0010982
0.00562919
0.000147063
0.00134626
0.00544123
0.000108047
0.00160184
0.00519877
8.50071e-05
0.00180969
0.00490654
0.000112562
0.00187153
0.00454089
0.000219711
0.00177108
0.0041644
0.000339182
0.00152439
0.00381334
0.000443336
0.00117549
0.0035272
0.000505956
0.000772602
0.00333022
0.000523742
0.000370887
0.00322043
0.000496418
7.76917e-05
0.00292339
0.000403181
0.00138451
0.000192273
-0.000118069
0.00158442
0.00023912
-0.000451618
0.00338522
0.000461798
-0.000865622
0.0037676
0.000530728
-0.00124039
0.00390864
0.000519838
-0.00152008
0.00411232
0.000464571
-0.00165655
0.0043803
0.00036551
-0.00163871
0.00467416
0.000256202
-0.00149045
0.00495871
0.000167545
-0.00129618
0.00518487
0.000147321
-0.00110589
0.00536862
0.000171671
-0.000937596
0.00550705
0.000206745
-0.000786431
0.00562195
0.000235913
-0.000647968
0.00570794
0.000257587
-0.000514485
0.00577351
0.000269928
-0.000383241
0.00581585
0.000277857
-0.000253226
0.00583827
0.000283733
-0.000123557
0.00583712
0.000287843
4.83417e-06
0.00581344
0.000292365
0.000131003
0.005767
0.00029688
0.00025867
0.00569844
0.000296339
0.000392883
0.00561115
0.000289406
0.000537813
0.0055024
0.0002762
0.000701529
0.00537573
0.000252651
0.000886024
0.00522111
0.000223585
0.00109315
0.00504319
0.000190917
0.00130096
0.00481838
0.000172583
0.00146002
0.00454961
0.000197871
0.0014983
0.00422417
0.000278444
0.00140194
0.00389221
0.000368552
0.00118499
0.00358592
0.000444372
0.00088552
0.00334221
0.000484459
0.000547732
0.00318308
0.000484931
0.000224639
0.0030979
0.000445615
2.08849e-05
0.00278197
0.000345178
0.00126874
0.00013666
-5.9612e-05
0.00146619
0.000177835
-0.00030971
0.00323807
0.000397246
-0.00065261
0.00363313
0.000477365
-0.000975999
0.00374986
0.000482169
-0.00122595
0.00391683
0.000445435
-0.00135762
0.0041439
0.000368063
-0.0013594
0.00439682
0.000279121
-0.00125079
0.00464373
0.000206371
-0.00109707
0.00484524
0.000185903
-0.000943105
0.00500949
0.000205162
-0.000805536
0.00513482
0.000234663
-0.000682663
0.00523742
0.000261656
-0.000570775
0.00531388
0.000282168
-0.000463232
0.00537117
0.000294803
-0.000357708
0.00540682
0.000303507
-0.000253681
0.0054234
0.000310842
-0.000150329
0.00541742
0.000316354
-4.77996e-05
0.00538958
0.00032133
5.36652e-05
0.00534028
0.000325258
0.000157668
0.0052704
0.000324037
0.000268765
0.00518341
0.000316638
0.000390523
0.00507725
0.000303393
0.000529101
0.00495532
0.000281834
0.000685169
0.00480892
0.00025612
0.000857287
0.00464113
0.000229937
0.00102487
0.00443349
0.00021731
0.00114519
0.00418805
0.000241247
0.00116461
0.00389988
0.000304864
0.0010727
0.00360988
0.000374237
0.000882754
0.00334681
0.000429063
0.000628317
0.00314438
0.000452265
0.000349808
0.00302132
0.000440273
9.88175e-05
0.00295593
0.000392961
-2.46176e-05
0.00261552
0.000289883
0.00115796
8.6158e-05
-1.27692e-05
0.00135573
0.000123232
-0.000188621
0.00307703
0.000336897
-0.00046761
0.00348887
0.000423257
-0.000744824
0.00358728
0.000439789
-0.00096815
0.00372304
0.000417122
-0.00109547
0.00391508
0.000356145
-0.001114
0.00413352
0.000281836
-0.00103824
0.0043494
0.000218573
-0.000919312
0.00452987
0.000196445
-0.000797039
0.00467754
0.000209677
-0.000687273
0.00479136
0.000233696
-0.000590408
0.00488307
0.00025748
-0.000503397
0.00495078
0.000276089
-0.000420429
0.00499996
0.000288243
-0.000339614
0.00502862
0.000297383
-0.000260859
0.00503851
0.000306135
-0.000183001
0.00502654
0.000313016
-0.000105363
0.00499338
0.000318561
-2.72366e-05
0.00493988
0.000322268
5.48942e-05
0.00486751
0.000320755
0.000145142
0.00477976
0.000313401
0.000246516
0.004675
0.000300869
0.000363344
0.00455658
0.000281912
0.000495053
0.00441695
0.000260264
0.000637746
0.0042579
0.000240544
0.000772271
0.00406524
0.000233719
0.000862115
0.00384083
0.000257376
0.000867215
0.00358515
0.000309627
0.000780658
0.00333241
0.000364025
0.000615705
0.00310862
0.000403142
0.000402366
0.00294393
0.000413786
0.000177742
0.00285282
0.000393127
-5.993e-06
0.00279853
0.000341139
-6.24737e-05
0.00243431
0.000237687
0.0010528
4.26817e-05
2.49901e-05
0.00125474
7.60052e-05
-8.5378e-05
0.00290538
0.000282014
-0.000306667
0.00333925
0.000370903
-0.000542128
0.0034266
0.000396144
-0.000741115
0.0035377
0.000384325
-0.000864011
0.00370176
0.00033621
-0.000896529
0.00389322
0.000272817
-0.00084841
0.00408554
0.000215735
-0.000759676
0.00425025
0.00019089
-0.000665614
0.00438572
0.000197763
-0.000581406
0.00449109
0.000216066
-0.000508973
0.00457462
0.000236027
-0.000445802
0.00463537
0.000252239
-0.000386666
0.00467749
0.000263329
-0.000330129
0.00469942
0.000272668
-0.000276332
0.00470205
0.000282663
-0.000223394
0.00468294
0.000290662
-0.000169652
0.00464295
0.000296688
-0.000113523
0.00458343
0.000300328
-5.15901e-05
0.0045066
0.000298977
2.01581e-05
0.00441595
0.000292066
0.000103809
0.00431056
0.000280796
0.000202053
0.00419343
0.000264901
0.000313257
0.00405799
0.000247752
0.000431643
0.00390531
0.000234204
0.000539447
0.00372445
0.000232991
0.000605832
0.00351759
0.00025686
0.000600907
0.00328893
0.000301152
0.000521114
0.00306803
0.000344173
0.000379945
0.00287855
0.000371236
0.000204493
0.0027469
0.000372485
2.9354e-05
0.00268196
0.000345994
-9.15085e-05
0.00262829
0.000291102
-9.28472e-05
0.00224634
0.000189316
0.000953875
6.08208e-06
5.77565e-05
0.00116034
3.66422e-05
1.74494e-06
0.00272935
0.000232048
-0.000165394
0.00318431
0.000322079
-0.000362252
0.00326984
0.000353612
-0.000538268
0.00336328
0.000350441
-0.000656061
0.00350665
0.000312907
-0.00069988
0.00367877
0.000258263
-0.000675209
0.00385519
0.00020568
-0.000613231
0.00401022
0.000178058
-0.000544949
0.00413888
0.000178552
-0.000484976
0.00423998
0.000191132
-0.000436344
0.00431899
0.000206992
-0.000396911
0.00437542
0.000220522
-0.000361811
0.00441222
0.000230176
-0.000330034
0.00442806
0.000239586
-0.000301619
0.00442306
0.00025058
-0.000273621
0.0043956
0.000259342
-0.000243238
0.0043469
0.000265667
-0.000207962
0.00427905
0.000269097
-0.00016446
0.004195
0.000268104
-0.000109287
0.00409861
0.000262163
-4.10034e-05
0.00398976
0.000252513
4.18276e-05
0.00387076
0.000239843
0.000136042
0.0037366
0.000227176
0.000234705
0.00358728
0.000219359
0.000321545
0.00341444
0.000223172
0.000370558
0.00322125
0.000247328
0.000359758
0.00301433
0.000285398
0.00028853
0.00282004
0.000319215
0.000170614
0.00265975
0.000336716
3.03392e-05
0.0025563
0.000330875
-9.73038e-05
0.00250976
0.000299841
-0.00016143
0.00244807
0.000244348
-0.000116038
0.00205572
0.000145221
0.000859829
-2.19911e-05
8.55074e-05
0.00107082
4.00665e-06
7.59678e-05
0.002552
0.000186881
-3.94103e-05
0.00302276
0.000276927
-0.000199331
0.0031161
0.000313667
-0.00035276
0.003199
0.000317705
-0.000464094
0.00332858
0.000289401
-0.000516444
0.00348865
0.000242476
-0.000511653
0.0036565
0.0001939
-0.000473821
0.00380822
0.000164166
-0.000429877
0.00393611
0.000158833
-0.00039383
0.0040379
0.000166036
-0.000369458
0.00411682
0.000177799
-0.000354812
0.00417214
0.000188631
-0.000345184
0.00420582
0.000196772
-0.000339862
0.00421653
0.000206208
-0.000338302
0.00420364
0.00021786
-0.000336143
0.00416651
0.000226935
-0.000329236
0.00410682
0.000233171
-0.000314183
0.00402785
0.000236148
-0.000287634
0.00393333
0.000235122
-0.000246979
0.00382768
0.000230279
-0.000191637
0.00371172
0.000222696
-0.000121745
0.00358755
0.000213316
-4.12294e-05
0.00345121
0.000204883
4.22783e-05
0.0033018
0.000201981
0.000113346
0.0031337
0.00020967
0.000150405
0.00295053
0.000233656
0.000137836
0.00276063
0.000266269
7.73144e-05
0.00258837
0.000292195
-1.79298e-05
0.00245325
0.000301746
-0.00012346
0.00237211
0.000289726
-0.000204964
0.00233505
0.000256218
-0.000219411
0.00226047
0.000202043
-0.000133979
0.00186467
0.00010562
0.000766607
-4.07569e-05
0.000108719
0.000982894
-2.07897e-05
0.000141808
0.00237248
0.000146435
7.49263e-05
0.00285381
0.000235835
-4.75678e-05
0.00296206
0.000276535
-0.000177813
0.00304174
0.000287505
-0.000280694
0.00316373
0.000267733
-0.000338601
0.00331815
0.000228408
-0.000350394
0.00348414
0.00018415
-0.000334563
0.00363881
0.00015358
-0.000314326
0.00377217
0.000143697
-0.00030288
0.0038801
0.000146354
-0.000304481
0.00396394
0.000154481
-0.000317007
0.00402184
0.000162824
-0.000335722
0.00405492
0.000169611
-0.000360014
0.00406172
0.000179103
-0.000388116
0.00404077
0.000190968
-0.000413829
0.0039925
0.000199719
-0.00043131
0.00391915
0.000205157
-0.000436365
0.00382578
0.000207125
-0.000425688
0.00371707
0.000205577
-0.000397588
0.00359841
0.000201173
-0.000352723
0.00347141
0.000195452
-0.000292769
0.00333827
0.000189331
-0.000222618
0.00319609
0.000184966
-0.000150512
0.00304374
0.000185946
-9.04726e-05
0.00287743
0.000196229
-6.00835e-05
0.00270119
0.00021896
-7.0614e-05
0.00252515
0.000246011
-0.000118244
0.0023715
0.000264501
-0.000189056
0.00225714
0.000266915
-0.000259331
0.00219196
0.00025042
-0.00029749
0.00215677
0.000216443
-0.000268262
0.00206711
0.000164135
-0.00014858
0.00167338
7.16107e-05
0.000672386
-5.43588e-05
0.000128949
0.000891053
-3.71076e-05
0.00020265
0.00218848
0.000110295
0.000181543
0.00267561
0.000199311
9.79821e-05
0.00280311
0.000242512
-7.00352e-06
0.00288687
0.000259859
-9.89854e-05
0.00300656
0.000249154
-0.0001589
0.00316015
0.000217915
-0.000183945
0.00333016
0.000179031
-0.000188155
0.00349364
0.00014938
-0.000191601
0.00363854
0.000137075
-0.000206329
0.00375817
0.000136655
-0.00023695
0.00385229
0.000142276
-0.000280548
0.0039167
0.00014874
-0.000332079
0.00395189
0.00015456
-0.000390849
0.00395632
0.00016417
-0.000453036
0.00392731
0.000175648
-0.000510016
0.00386639
0.000183089
-0.000553673
0.00377628
0.000186522
-0.000579214
0.00366488
0.000186443
-0.000583493
0.00353792
0.000183436
-0.000566119
0.00340235
0.000178688
-0.000529089
0.00326056
0.000173813
-0.000475834
0.00311501
0.000170001
-0.000412477
0.00296364
0.000169089
-0.000347688
0.00280561
0.00017334
-0.00029387
0.00263884
0.000184774
-0.000265344
0.00246781
0.000204853
-0.000269783
0.00230374
0.000225844
-0.000301502
0.0021661
0.000237118
-0.00034603
0.00206807
0.000233603
-0.000380773
0.00201252
0.000214185
-0.00037861
0.00197378
0.000180827
-0.000310129