/*--------------------------------*- C++ -*----------------------------------*\
| =========                 |                                                 |
| \\      /  F ield         | OpenFOAM: The Open Source CFD Toolbox           |
|  \\    /   O peration     | Version:  2.3.1                                 |
|   \\  /    A nd           | Web:      www.OpenFOAM.org                      |
|    \\/     M anipulation  |                                                 |
\*---------------------------------------------------------------------------*/
FoamFile
{
    version     2.0;
    format      ascii;
    class       volVectorField;
    location    "600";
    object      U;
}
// * * * * * * * * * * * * * * * * * * * * * * * * * * * * * * * * * * * * * //

dimensions      [0 1 -1 0 0 0 0];

internalField   nonuniform List<vector> 
47964
(
(0.00316295 -0.0108133 0.00419953)
(-0.00321843 -0.0118187 0.0083378)
(-0.0278256 -0.00672523 0.0100598)
(-0.0624745 -0.00483466 0.0158824)
(-0.103694 -0.00684945 0.0241844)
(-0.144426 -0.0132031 0.0336291)
(-0.177401 -0.0237413 0.0424773)
(-0.195988 -0.0366079 0.0489245)
(-0.199274 -0.0484407 0.0528777)
(-0.190433 -0.0584265 0.055105)
(-0.173152 -0.0655838 0.0564907)
(-0.151167 -0.0710138 0.057305)
(-0.126156 -0.0748467 0.0579223)
(-0.0997436 -0.0780091 0.0582916)
(-0.0721833 -0.0805556 0.0585686)
(-0.0433468 -0.0827721 0.0585731)
(-0.0150842 -0.0841644 0.058614)
(0.0160171 -0.0841152 0.0585791)
(0.04438 -0.0826879 0.0584738)
(0.0734546 -0.0804603 0.0584151)
(0.101338 -0.0779275 0.0580969)
(0.128212 -0.0748331 0.0577132)
(0.153792 -0.0711489 0.0571157)
(0.176651 -0.0660576 0.0563512)
(0.195265 -0.0593424 0.0550834)
(0.206 -0.049902 0.0530918)
(0.205207 -0.03854 0.0495354)
(0.18943 -0.0258792 0.0436553)
(0.159073 -0.015048 0.0352194)
(0.119969 -0.00776218 0.0257907)
(0.0789769 -0.00426783 0.0170603)
(0.0415249 -0.00372145 0.0100798)
(0.01273 -0.00616866 0.00597909)
(-0.00508923 -0.0113326 0.00533822)
(-0.00484864 -0.0103992 0.001647)
(-0.0115003 -0.0139761 0.00769155)
(-0.0698408 -0.00430675 0.0217646)
(-0.139049 2.92592e-05 0.0294053)
(-0.203799 -0.0104674 0.0366067)
(-0.262012 -0.0333291 0.0427985)
(-0.306055 -0.0650703 0.0463079)
(-0.330116 -0.101852 0.046148)
(-0.330439 -0.137406 0.0428014)
(-0.3116 -0.163761 0.0389326)
(-0.281301 -0.182111 0.03579)
(-0.245061 -0.192356 0.0342034)
(-0.207459 -0.198603 0.0329411)
(-0.169198 -0.201714 0.0322869)
(-0.131873 -0.203835 0.0314614)
(-0.0946588 -0.205254 0.0306839)
(-0.0570551 -0.206544 0.0296316)
(-0.0204082 -0.207744 0.0283845)
(0.0218392 -0.207699 0.0284122)
(0.0585727 -0.206489 0.0296156)
(0.0965116 -0.205233 0.030628)
(0.13419 -0.203884 0.0313905)
(0.172158 -0.20192 0.0322501)
(0.211087 -0.199116 0.0329627)
(0.249682 -0.193622 0.0341464)
(0.287463 -0.184473 0.035612)
(0.320042 -0.167705 0.0385941)
(0.342184 -0.143159 0.0424375)
(0.34614 -0.109323 0.0461905)
(0.327161 -0.0734092 0.0468078)
(0.288441 -0.041032 0.0436493)
(0.235699 -0.015733 0.0375346)
(0.174842 0.000402236 0.0298507)
(0.113683 0.00495879 0.0224411)
(0.0512387 -0.00384656 0.0146448)
(0.00489998 -0.0150226 0.00131291)
(-0.0248545 0.0100641 0.0147587)
(-0.105139 0.0150615 0.0285349)
(-0.186572 0.00251381 0.0347119)
(-0.258152 -0.024467 0.0379848)
(-0.319875 -0.0632486 0.0364245)
(-0.363594 -0.109623 0.0287704)
(-0.382238 -0.158272 0.0156799)
(-0.370175 -0.201015 0.000291109)
(-0.33643 -0.226795 -0.010761)
(-0.294051 -0.242231 -0.0177761)
(-0.249218 -0.248527 -0.0200124)
(-0.207354 -0.251306 -0.0216643)
(-0.16676 -0.251382 -0.0220236)
(-0.129063 -0.250859 -0.0229219)
(-0.0920712 -0.249972 -0.0238511)
(-0.0553971 -0.249146 -0.025305)
(-0.0194912 -0.248812 -0.0274044)
(0.0211217 -0.24883 -0.0273115)
(0.0570908 -0.249202 -0.0252262)
(0.0941138 -0.250101 -0.0237983)
(0.13159 -0.251076 -0.0228518)
(0.169931 -0.251757 -0.0218507)
(0.210988 -0.251966 -0.0213492)
(0.25356 -0.249933 -0.0199567)
(0.299602 -0.244624 -0.0180939)
(0.34396 -0.230902 -0.0116649)
(0.381034 -0.207355 -0.00115811)
(0.39782 -0.16764 0.0141088)
(0.385411 -0.121219 0.0272377)
(0.348537 -0.0759115 0.0354005)
(0.294303 -0.0363335 0.0376346)
(0.229245 -0.00599403 0.0347282)
(0.159845 0.0127665 0.028501)
(0.0856826 0.0180052 0.0201028)
(0.0171685 0.00832968 0.00602468)
(-0.0305097 0.0377437 0.0207614)
(-0.125497 0.0438469 0.0323513)
(-0.221281 0.0227452 0.0332697)
(-0.304129 -0.00936296 0.0292862)
(-0.37222 -0.0472596 0.017378)
(-0.41608 -0.0853103 -0.00596597)
(-0.425346 -0.12152 -0.0381902)
(-0.392847 -0.150779 -0.0713621)
(-0.3387 -0.164855 -0.0867093)
(-0.285883 -0.172404 -0.0939365)
(-0.23609 -0.174289 -0.0930666)
(-0.194231 -0.174577 -0.0934248)
(-0.154471 -0.173788 -0.0921628)
(-0.118893 -0.172859 -0.0924246)
(-0.0840298 -0.171897 -0.0930524)
(-0.0499819 -0.171045 -0.0946045)
(-0.0170946 -0.170745 -0.0971165)
(0.0186846 -0.17087 -0.0968782)
(0.0517045 -0.171376 -0.0941807)
(0.0861765 -0.172471 -0.092463)
(0.121623 -0.173684 -0.0915928)
(0.157962 -0.17491 -0.0909482)
(0.198107 -0.176032 -0.0917356)
(0.240651 -0.176125 -0.0918289)
(0.291313 -0.174765 -0.0928581)
(0.34533 -0.168378 -0.0866425)
(0.401806 -0.156255 -0.072551)
(0.438644 -0.129464 -0.041016)
(0.436112 -0.0956421 -0.00953368)
(0.400408 -0.0597371 0.0144773)
(0.341266 -0.0239784 0.0275334)
(0.268291 0.00876997 0.0315763)
(0.18764 0.0335112 0.0299183)
(0.101145 0.0473721 0.0239912)
(0.0210123 0.0362054 0.010227)
(-0.0352453 0.0683764 0.0260118)
(-0.142332 0.0861548 0.0332098)
(-0.247687 0.069639 0.027011)
(-0.336233 0.0473457 0.0142521)
(-0.403996 0.0231674 -0.00758979)
(-0.439401 -0.0015501 -0.0381204)
(-0.435778 -0.0226051 -0.0705581)
(-0.388419 -0.0358144 -0.0968081)
(-0.328391 -0.038264 -0.0952338)
(-0.279413 -0.0400389 -0.0931076)
(-0.232643 -0.0407333 -0.0877689)
(-0.19326 -0.041009 -0.0859222)
(-0.154917 -0.0413501 -0.0841558)
(-0.11984 -0.041347 -0.0839471)
(-0.0851672 -0.0412435 -0.0840224)
(-0.0510433 -0.0409933 -0.0847793)
(-0.0178439 -0.0409345 -0.0860774)
(0.0189516 -0.0414231 -0.0859687)
(0.0522939 -0.0423045 -0.0845445)
(0.0868304 -0.0434627 -0.0836546)
(0.122102 -0.0445284 -0.0833885)
(0.158063 -0.0455539 -0.0833318)
(0.197262 -0.0461742 -0.0846666)
(0.237908 -0.0464054 -0.0861168)
(0.285688 -0.0462143 -0.090615)
(0.335585 -0.045072 -0.092412)
(0.396398 -0.0437323 -0.094408)
(0.446019 -0.032853 -0.070171)
(0.455147 -0.0144178 -0.0397596)
(0.427838 0.0081818 -0.01043)
(0.371367 0.0312261 0.0111863)
(0.294667 0.0532802 0.0232673)
(0.207713 0.0723985 0.027646)
(0.112717 0.0853964 0.0260796)
(0.0237952 0.0651068 0.0145971)
(-0.0389917 0.0998971 0.0297598)
(-0.155199 0.134533 0.0351065)
(-0.266516 0.125917 0.0266527)
(-0.357295 0.114348 0.0122506)
(-0.424187 0.104074 -0.0112387)
(-0.456575 0.0939205 -0.04253)
(-0.448455 0.0842647 -0.0737977)
(-0.395866 0.076367 -0.0984231)
(-0.332042 0.0727702 -0.0963221)
(-0.280833 0.0690899 -0.0968671)
(-0.231171 0.0674995 -0.0940933)
(-0.189863 0.0669731 -0.0937149)
(-0.150724 0.0673275 -0.0930136)
(-0.115571 0.0679268 -0.0935089)
(-0.0814895 0.0686118 -0.0941273)
(-0.0484707 0.0690503 -0.0952761)
(-0.016979 0.0691935 -0.0967532)
(0.0168753 0.0686774 -0.0967817)
(0.0484851 0.0675625 -0.0953626)
(0.081802 0.0660445 -0.0942702)
(0.11635 0.0641822 -0.0936808)
(0.15224 0.0622908 -0.0931863)
(0.192194 0.0605523 -0.0937801)
(0.234775 0.0597002 -0.093984)
(0.285638 0.0598925 -0.0961569)
(0.338269 0.0622939 -0.0950597)
(0.402932 0.0649556 -0.0964993)
(0.457183 0.071613 -0.0732281)
(0.470073 0.0800865 -0.0440605)
(0.445397 0.089158 -0.0146677)
(0.389716 0.0977642 0.00850323)
(0.312016 0.108302 0.0220702)
(0.221769 0.119204 0.0279492)
(0.121377 0.127125 0.0281201)
(0.026005 0.0928383 0.0178426)
(-0.0395312 0.130699 0.0316208)
(-0.159318 0.184678 0.0374981)
(-0.272753 0.18427 0.0296383)
(-0.36386 0.18191 0.0167012)
(-0.430022 0.18136 -0.00433068)
(-0.460913 0.180155 -0.0329476)
(-0.45166 0.177478 -0.0618111)
(-0.398053 0.174292 -0.0857451)
(-0.333232 0.174142 -0.085173)
(-0.281237 0.173587 -0.08695)
(-0.230588 0.17446 -0.0848913)
(-0.188808 0.175482 -0.08446)
(-0.149658 0.176796 -0.0835811)
(-0.114733 0.177815 -0.0837548)
(-0.0810903 0.178592 -0.0840546)
(-0.048573 0.178841 -0.0848013)
(-0.0173427 0.17864 -0.0858809)
(0.0161614 0.178018 -0.0858834)
(0.0474863 0.177037 -0.084806)
(0.0802213 0.175476 -0.0840606)
(0.114248 0.173255 -0.0837516)
(0.149825 0.170645 -0.0835608)
(0.189771 0.167599 -0.0843616)
(0.232766 0.164781 -0.0846901)
(0.284578 0.162014 -0.0863678)
(0.338072 0.160698 -0.0842412)
(0.403833 0.159208 -0.0841022)
(0.458958 0.160984 -0.0610458)
(0.472526 0.162669 -0.0338125)
(0.448924 0.163362 -0.00701244)
(0.394026 0.162795 0.0132233)
(0.316585 0.164112 0.0249616)
(0.225794 0.167372 0.0299347)
(0.123751 0.169191 0.0298674)
(0.0262307 0.118457 0.019501)
(-0.0374309 0.15775 0.03165)
(-0.15629 0.231648 0.0391986)
(-0.269324 0.238334 0.0328572)
(-0.359792 0.243231 0.0216461)
(-0.425837 0.250388 0.00274439)
(-0.457181 0.256624 -0.0246511)
(-0.449047 0.259637 -0.0533122)
(-0.395817 0.260842 -0.0782241)
(-0.330429 0.265359 -0.0788808)
(-0.27806 0.269278 -0.0811635)
(-0.227058 0.273805 -0.0792355)
(-0.185437 0.277519 -0.0786121)
(-0.146716 0.280834 -0.0775163)
(-0.112447 0.283244 -0.0774158)
(-0.0795741 0.284995 -0.0774645)
(-0.0479101 0.285877 -0.0779161)
(-0.0174253 0.285974 -0.0787223)
(0.0150372 0.285269 -0.0787144)
(0.0455716 0.283811 -0.0778839)
(0.077336 0.28141 -0.0774173)
(0.110465 0.277964 -0.0773647)
(0.145242 0.273673 -0.0774664)
(0.184654 0.268276 -0.0785364)
(0.227366 0.262357 -0.0791205)
(0.27949 0.255477 -0.0808484)
(0.333404 0.249233 -0.0784191)
(0.400029 0.242527 -0.0773528)
(0.455063 0.239682 -0.0531657)
(0.467446 0.235708 -0.0258331)
(0.443087 0.229234 0.000115943)
(0.388116 0.221072 0.0182437)
(0.311365 0.21492 0.0281568)
(0.221613 0.211916 0.0318394)
(0.120545 0.208065 0.030754)
(0.0246654 0.140198 0.0196176)
(-0.0334832 0.179588 0.030186)
(-0.14772 0.273503 0.0398721)
(-0.258375 0.286579 0.03562)
(-0.347448 0.297641 0.0263871)
(-0.413525 0.311761 0.00969687)
(-0.446258 0.325754 -0.016761)
(-0.440205 0.335676 -0.0460764)
(-0.387799 0.342865 -0.0725552)
(-0.322187 0.352849 -0.0736977)
(-0.270402 0.361878 -0.0757255)
(-0.220247 0.370167 -0.073488)
(-0.179801 0.376595 -0.0725866)
(-0.142213 0.38177 -0.0713001)
(-0.109109 0.385438 -0.0710257)
(-0.0773504 0.38802 -0.070934)
(-0.0468381 0.389435 -0.0712204)
(-0.0174082 0.389758 -0.0718656)
(0.0136566 0.388995 -0.0718489)
(0.0430716 0.387177 -0.0711561)
(0.0735331 0.384077 -0.0708452)
(0.105386 0.379581 -0.0709499)
(0.138818 0.373781 -0.0712575)
(0.176959 0.366237 -0.0725852)
(0.218349 0.357305 -0.0735241)
(0.269578 0.346353 -0.0757371)
(0.322911 0.334707 -0.0737544)
(0.390076 0.322177 -0.0725656)
(0.444706 0.313069 -0.0467624)
(0.455139 0.30196 -0.0185524)
(0.42932 0.287579 0.00691725)
(0.37412 0.272186 0.0231014)
(0.298451 0.259485 0.0311341)
(0.210872 0.251193 0.0332642)
(0.11283 0.242122 0.0306843)
(0.0217731 0.157151 0.0185026)
(-0.0284492 0.19525 0.0275731)
(-0.134874 0.308621 0.0394208)
(-0.241124 0.327412 0.0376308)
(-0.327573 0.343682 0.0306235)
(-0.393051 0.364293 0.0164793)
(-0.427136 0.386427 -0.0083621)
(-0.423604 0.404419 -0.038065)
(-0.373137 0.418645 -0.0658466)
(-0.308558 0.433858 -0.0670331)
(-0.258551 0.448042 -0.068227)
(-0.210538 0.459915 -0.0654985)
(-0.17219 0.469031 -0.0643299)
(-0.136399 0.476036 -0.0629308)
(-0.104917 0.480982 -0.0625694)
(-0.0745856 0.484409 -0.0624021)
(-0.0454811 0.486363 -0.0625666)
(-0.01734 0.486911 -0.0630649)
(0.0121163 0.486089 -0.0630197)
(0.0401583 0.483906 -0.0624089)
(0.0690161 0.480099 -0.062189)
(0.0992388 0.474553 -0.062389)
(0.130845 0.467246 -0.0628278)
(0.167046 0.457628 -0.0643543)
(0.206203 0.445774 -0.0656575)
(0.255269 0.431019 -0.0685395)
(0.30683 0.414032 -0.0675717)
(0.37322 0.396117 -0.0666603)
(0.426248 0.379806 -0.0395166)
(0.434254 0.360351 -0.0107305)
(0.407066 0.33734 0.0136311)
(0.352301 0.314926 0.0275414)
(0.278718 0.296441 0.0335732)
(0.194691 0.283853 0.0339812)
(0.101615 0.270122 0.0296529)
(0.0180696 0.168755 0.0164679)
(-0.0230328 0.20445 0.0241164)
(-0.119111 0.336046 0.0378341)
(-0.219094 0.360033 0.0387045)
(-0.301542 0.38086 0.034139)
(-0.365452 0.408101 0.0229774)
(-0.400151 0.439218 0.00105623)
(-0.399348 0.46831 -0.0280864)
(-0.352359 0.49357 -0.0570234)
(-0.290226 0.513585 -0.0588895)
(-0.242734 0.531987 -0.0589205)
(-0.19797 0.546207 -0.0555516)
(-0.162482 0.557251 -0.0540413)
(-0.129115 0.565501 -0.0524997)
(-0.0997092 0.5714 -0.0520494)
(-0.0711615 0.575449 -0.0518056)
(-0.0437676 0.57783 -0.0518579)
(-0.017212 0.578565 -0.052219)
(0.0103416 0.577692 -0.0521385)
(0.0366994 0.57521 -0.0515923)
(0.0636337 0.570838 -0.0514554)
(0.0918611 0.564503 -0.0517675)
(0.121186 0.556078 -0.0523688)
(0.154834 0.545073 -0.0541618)
(0.191032 0.531189 -0.0559395)
(0.236877 0.514069 -0.0596636)
(0.286007 0.492868 -0.060018)
(0.350171 0.47016 -0.0585252)
(0.399855 0.442543 -0.0300416)
(0.405083 0.41154 -0.00160753)
(0.377111 0.378589 0.0202129)
(0.323728 0.348857 0.0313345)
(0.253469 0.325144 0.0352049)
(0.174399 0.309182 0.0338197)
(0.0880063 0.291334 0.0276906)
(0.0140564 0.174901 0.0137851)
(-0.0176984 0.207383 0.0200808)
(-0.101427 0.355108 0.0351609)
(-0.193154 0.383412 0.0387173)
(-0.269596 0.40725 0.0368613)
(-0.329626 0.439286 0.0295146)
(-0.362525 0.477341 0.0129892)
(-0.363171 0.516371 -0.0109666)
(-0.323412 0.552199 -0.0345909)
(-0.268916 0.576842 -0.0377166)
(-0.225307 0.598598 -0.0373875)
(-0.184628 0.614527 -0.0342999)
(-0.15214 0.627125 -0.0328773)
(-0.121428 0.636349 -0.0315391)
(-0.0942119 0.643049 -0.0311884)
(-0.0675777 0.647581 -0.0309898)
(-0.041987 0.650209 -0.0309697)
(-0.0171229 0.650946 -0.0311639)
(0.0084763 0.649933 -0.0310005)
(0.0330446 0.647134 -0.0304506)
(0.0579491 0.642269 -0.0302943)
(0.0840592 0.635305 -0.0305672)
(0.111034 0.625981 -0.0311192)
(0.141973 0.613977 -0.0327981)
(0.175192 0.598566 -0.0345661)
(0.217074 0.579845 -0.0380416)
(0.262416 0.555337 -0.0386883)
(0.318857 0.527918 -0.0357833)
(0.36107 0.489384 -0.0126577)
(0.364684 0.448008 0.0106945)
(0.338291 0.407266 0.0270221)
(0.288483 0.371936 0.0343457)
(0.223487 0.344588 0.0358088)
(0.151047 0.326638 0.0326651)
(0.0729379 0.305378 0.024868)
(0.0100988 0.175859 0.0106853)
(-0.0128797 0.204777 0.0157318)
(-0.0832578 0.365722 0.0314807)
(-0.165456 0.397183 0.0374246)
(-0.234735 0.421796 0.0380593)
(-0.289755 0.455443 0.0342626)
(-0.320207 0.496141 0.0232965)
(-0.32213 0.539715 0.00589704)
(-0.290039 0.58033 -0.0119792)
(-0.244187 0.608361 -0.0155298)
(-0.205304 0.632354 -0.0148093)
(-0.169314 0.649625 -0.0118759)
(-0.140189 0.663522 -0.0103282)
(-0.112588 0.673657 -0.00905058)
(-0.0879126 0.68115 -0.00870301)
(-0.0635996 0.686168 -0.00851007)
(-0.0401682 0.689062 -0.00853142)
(-0.0172162 0.689808 -0.00873235)
(0.00630373 0.688597 -0.00854773)
(0.0289125 0.685365 -0.00799936)
(0.0516047 0.67989 -0.00779642)
(0.0753395 0.672208 -0.00801617)
(0.0997109 0.661942 -0.00855927)
(0.12757 0.648976 -0.0101872)
(0.157523 0.63223 -0.012062)
(0.194827 0.612135 -0.0152866)
(0.235438 0.585268 -0.016187)
(0.283067 0.554235 -0.0127229)
(0.317301 0.510685 0.00468112)
(0.319285 0.464276 0.0216197)
(0.295033 0.420392 0.0321692)
(0.249833 0.382915 0.0359052)
(0.19113 0.354413 0.0351407)
(0.126344 0.336206 0.0304937)
(0.0575256 0.31234 0.0213335)
(0.00650891 0.172276 0.00739651)
(-0.00878738 0.197878 0.0113549)
(-0.0657628 0.368714 0.0270126)
(-0.137848 0.402401 0.0348337)
(-0.199469 0.425986 0.0374494)
(-0.249013 0.458761 0.0364638)
(-0.277021 0.499094 0.0301962)
(-0.280095 0.542445 0.0194312)
(-0.255116 0.583953 0.00699117)
(-0.217411 0.613192 0.00379895)
(-0.183683 0.637486 0.00476862)
(-0.152527 0.654908 0.00738664)
(-0.126878 0.669155 0.00891386)
(-0.102623 0.679625 0.0100973)
(-0.0807545 0.687547 0.0104702)
(-0.059066 0.692841 0.0106688)
(-0.0380673 0.695943 0.0106734)
(-0.017329 0.696712 0.0105442)
(0.0038189 0.695281 0.0107379)
(0.0241862 0.691592 0.01121)
(0.0444206 0.685533 0.011381)
(0.0655375 0.677261 0.0111523)
(0.087136 0.666355 0.0105897)
(0.111743 0.652936 0.00908657)
(0.138337 0.635723 0.00726971)
(0.170913 0.615317 0.00445804)
(0.206345 0.587921 0.00343341)
(0.245653 0.555414 0.00664408)
(0.272447 0.510714 0.0186648)
(0.272845 0.464148 0.0289138)
(0.250688 0.420277 0.0347051)
(0.210464 0.383329 0.0356658)
(0.158449 0.355773 0.0331682)
(0.101767 0.338729 0.0274319)
(0.0426792 0.312879 0.0173199)
(0.00345067 0.165123 0.00414183)
(-0.0054576 0.188069 0.00721554)
(-0.0497453 0.365378 0.0220846)
(-0.111728 0.400658 0.031205)
(-0.165724 0.42198 0.035223)
(-0.209846 0.452073 0.0362268)
(-0.235402 0.489636 0.0333348)
(-0.239594 0.530089 0.0274404)
(-0.220641 0.568988 0.0198723)
(-0.190074 0.597558 0.0173896)
(-0.161359 0.620647 0.0182922)
(-0.134867 0.637287 0.0203709)
(-0.112755 0.65137 0.0216803)
(-0.0919274 0.66183 0.0226792)
(-0.0730037 0.669828 0.0230725)
(-0.0541329 0.675163 0.0232954)
(-0.0357756 0.678289 0.0233603)
(-0.017524 0.67896 0.0233254)
(0.000968888 0.67731 0.0234876)
(0.0188563 0.67328 0.0237969)
(0.0364631 0.666807 0.0238668)
(0.0548363 0.658149 0.0236051)
(0.0736102 0.64689 0.0230544)
(0.0949473 0.633265 0.0217972)
(0.118154 0.616012 0.0202663)
(0.146151 0.596088 0.0180868)
(0.176526 0.56959 0.0172034)
(0.208476 0.537423 0.0197489)
(0.228931 0.495097 0.0268929)
(0.227881 0.451137 0.0322449)
(0.207837 0.409812 0.034683)
(0.172475 0.375374 0.0337497)
(0.127081 0.350326 0.0301081)
(0.0784637 0.335416 0.0237311)
(0.0290568 0.307967 0.013107)
(0.000977196 0.155466 0.00111258)
(-0.00281495 0.176608 0.00351393)
(-0.0356315 0.357178 0.0170484)
(-0.0879563 0.393707 0.0269161)
(-0.134696 0.412146 0.0317993)
(-0.17375 0.438535 0.0340388)
(-0.197018 0.472021 0.0331996)
(-0.202178 0.508261 0.0302948)
(-0.188141 0.543068 0.0260523)
(-0.163693 0.569556 0.024355)
(-0.139702 0.591028 0.0250152)
(-0.117607 0.606854 0.026485)
(-0.098901 0.620149 0.0276205)
(-0.0813563 0.630083 0.0284916)
(-0.065316 0.63772 0.028915)
(-0.0492718 0.642785 0.0291768)
(-0.0336188 0.645699 0.0293084)
(-0.0179865 0.646135 0.0293574)
(-0.00227927 0.644232 0.0294985)
(0.0130506 0.639924 0.0296795)
(0.0280296 0.633211 0.0296618)
(0.0437218 0.624423 0.0293589)
(0.0598053 0.613177 0.0287973)
(0.078072 0.599788 0.0277083)
(0.0980528 0.583069 0.026398)
(0.121767 0.563743 0.0248502)
(0.14738 0.538584 0.0242173)
(0.17301 0.508206 0.0259379)
(0.188308 0.469579 0.0297689)
(0.186097 0.429622 0.0321472)
(0.168051 0.392251 0.0326118)
(0.13719 0.361511 0.0305637)
(0.0980828 0.339898 0.0263234)
(0.0571579 0.327593 0.0196982)
(0.0170451 0.298663 0.00897418)
(-0.000924971 0.144333 -0.00155738)
(-0.000744622 0.164487 0.000364348)
(-0.023542 0.345513 0.0122134)
(-0.0669123 0.383167 0.0223561)
(-0.106948 0.398625 0.0276774)
(-0.141396 0.420958 0.0305637)
(-0.162663 0.449942 0.0308402)
(-0.168638 0.481546 0.0295597)
(-0.158641 0.512061 0.0272736)
(-0.139437 0.536003 0.0261481)
(-0.119745 0.555427 0.0266577)
(-0.10154 0.569969 0.0277466)
(-0.085938 0.582104 0.0287436)
(-0.0714284 0.591195 0.0295009)
(-0.0581215 0.598169 0.0299263)
(-0.0448082 0.60273 0.0302119)
(-0.031822 0.605245 0.0304028)
(-0.0188308 0.605346 0.0305242)
(-0.0059026 0.603162 0.0306676)
(0.0068898 0.598625 0.0307686)
(0.0193167 0.591805 0.0306887)
(0.0324708 0.583037 0.0303572)
(0.0460776 0.572011 0.029796)
(0.0615848 0.559082 0.0288454)
(0.0786774 0.543177 0.027713)
(0.0986318 0.524847 0.0265329)
(0.119931 0.501448 0.0260257)
(0.140219 0.473345 0.02705)
(0.1514 0.438781 0.0289454)
(0.148314 0.40336 0.0297838)
(0.132047 0.370477 0.0292003)
(0.105272 0.343964 0.0266241)
(0.0719865 0.326161 0.0222083)
(0.0381552 0.31649 0.0156323)
(0.00684454 0.286017 0.00518706)
(-0.00223844 0.132549 -0.00380989)
(0.000853094 0.152424 -0.00220357)
(-0.0133913 0.331525 0.00781413)
(-0.0486119 0.370363 0.0178558)
(-0.082566 0.383125 0.0233207)
(-0.112871 0.401548 0.0264556)
(-0.132403 0.426185 0.0272618)
(-0.139105 0.453395 0.0267435)
(-0.132453 0.47985 0.0254664)
(-0.117646 0.501182 0.0247516)
(-0.101742 0.518545 0.0251299)
(-0.0869394 0.531718 0.0259592)
(-0.074158 0.542585 0.0268307)
(-0.0624339 0.550712 0.0274956)
(-0.0516944 0.55687 0.0279044)
(-0.0409754 0.56079 0.0282018)
(-0.0305635 0.562768 0.0284463)
(-0.0201764 0.562441 0.0286307)
(-0.00989751 0.559892 0.0288008)
(0.000348319 0.555125 0.0288654)
(0.0103998 0.548213 0.0287428)
(0.0211894 0.539511 0.0284002)
(0.0325558 0.52877 0.0278478)
(0.0456263 0.516351 0.0269948)
(0.0601764 0.501313 0.0259943)
(0.0769177 0.484039 0.0250443)
(0.094492 0.462443 0.0245986)
(0.11042 0.436756 0.0251482)
(0.118361 0.406159 0.0260932)
(0.1146 0.37515 0.0262069)
(0.0999516 0.346751 0.0251321)
(0.076881 0.324504 0.0224139)
(0.0489165 0.31047 0.018103)
(0.0215194 0.303089 0.011773)
(-0.00158661 0.270435 0.00187461)
(-0.00309998 0.121182 -0.00558042)
(0.00198562 0.140816 -0.0042367)
(-0.00502077 0.316115 0.00402819)
(-0.0327859 0.356275 0.013659)
(-0.0613015 0.366862 0.0190842)
(-0.0878763 0.381845 0.0222348)
(-0.10587 0.402638 0.0232456)
(-0.113221 0.426032 0.0230354)
(-0.109346 0.449002 0.0221699)
(-0.0982236 0.467996 0.0216702)
(-0.0856254 0.483507 0.0219407)
(-0.0738223 0.495412 0.0225878)
(-0.0636392 0.505082 0.023327)
(-0.0544887 0.512263 0.0238982)
(-0.0461756 0.517574 0.0242673)
(-0.0379276 0.520793 0.0245626)
(-0.0300044 0.522136 0.0248517)
(-0.0221695 0.521268 0.0250849)
(-0.0144263 0.518251 0.0252775)
(-0.00663026 0.513153 0.0253365)
(0.00119798 0.50607 0.0251914)
(0.00983747 0.497361 0.0248473)
(0.0192033 0.486861 0.0243243)
(0.0301613 0.474881 0.0235646)
(0.0425069 0.460622 0.0226962)
(0.0565378 0.444324 0.0219267)
(0.0709779 0.424373 0.0215476)
(0.0834096 0.400951 0.0218702)
(0.0888425 0.373882 0.0223861)
(0.084639 0.346871 0.0221838)
(0.0715321 0.322639 0.0209351)
(0.0518557 0.304389 0.0182973)
(0.0287182 0.293801 0.0142484)
(0.0072651 0.288121 0.00826868)
(-0.00835822 0.252678 -0.000959624)
(-0.0039092 0.110458 -0.00685886)
(0.00280193 0.130327 -0.00575778)
(0.00187197 0.29935 0.000879587)
(-0.0190887 0.341496 0.00990899)
(-0.0427214 0.350602 0.0151934)
(-0.0658946 0.362774 0.0182472)
(-0.0824683 0.380399 0.0193088)
(-0.0903492 0.400706 0.0192048)
(-0.0887957 0.420931 0.0184772)
(-0.0808039 0.438051 0.0180251)
(-0.0711275 0.452091 0.0181834)
(-0.0620236 0.462964 0.0186646)
(-0.054276 0.471652 0.0192592)
(-0.047559 0.478023 0.0197249)
(-0.0415939 0.482556 0.0200312)
(-0.0357545 0.485076 0.0203117)
(-0.0302888 0.485714 0.0206319)
(-0.0249749 0.48419 0.0208938)
(-0.0196921 0.480572 0.0210945)
(-0.014209 0.474971 0.021159)
(-0.00847265 0.467574 0.0210279)
(-0.00179039 0.458713 0.0206896)
(0.00584232 0.448241 0.0202053)
(0.0149768 0.436532 0.0195518)
(0.0254455 0.422858 0.0188331)
(0.0372251 0.407335 0.0182406)
(0.0490792 0.388741 0.0179708)
(0.0587515 0.36727 0.0182211)
(0.0623046 0.343186 0.0185469)
(0.0579217 0.319638 0.0182178)
(0.0463576 0.2991 0.016956)
(0.0298421 0.284401 0.0145022)
(0.0111326 0.276775 0.010772)
(-0.00484107 0.271609 0.00506786)
(-0.0135107 0.23414 -0.00323299)
(-0.00471701 0.100131 -0.0077552)
(0.0036372 0.120664 -0.00683704)
(0.00756929 0.281719 -0.00172059)
(-0.00725892 0.326368 0.00666586)
(-0.0262887 0.334712 0.0117604)
(-0.0463155 0.344767 0.0146835)
(-0.0614977 0.35996 0.0157465)
(-0.0697488 0.377953 0.0156844)
(-0.0701275 0.396206 0.0149949)
(-0.0648415 0.412039 0.0145067)
(-0.0578076 0.425107 0.0145414)
(-0.0512068 0.43532 0.014863)
(-0.0458167 0.44335 0.0153088)
(-0.0414912 0.449139 0.0156604)
(-0.0378881 0.453038 0.0158909)
(-0.0344904 0.454908 0.016151)
(-0.0315384 0.454798 0.0164909)
(-0.0287752 0.4525 0.0167627)
(-0.025929 0.448115 0.0169584)
(-0.0226763 0.441807 0.0170134)
(-0.0188808 0.433835 0.016913)
(-0.0139486 0.424563 0.0166183)
(-0.00788059 0.413941 0.0161786)
(-0.000270436 0.402202 0.0156231)
(0.00865135 0.388773 0.0150471)
(0.0185755 0.373762 0.0146311)
(0.0283527 0.356184 0.0144924)
(0.0359099 0.336276 0.0147389)
(0.0381378 0.314617 0.0149677)
(0.0338664 0.293979 0.0145896)
(0.0238991 0.276614 0.0133801)
(0.0104172 0.264997 0.0111346)
(-0.00432309 0.259617 0.00761617)
(-0.0147646 0.254036 0.00234695)
(-0.0175768 0.21515 -0.00503756)
(-0.00529933 0.0906467 -0.00808318)
(0.00448045 0.111401 -0.00762109)
(0.0121754 0.264092 -0.00378217)
(0.00314173 0.310499 0.00381985)
(-0.0114995 0.319251 0.00880635)
(-0.0284938 0.327874 0.0116176)
(-0.0422291 0.341365 0.0126923)
(-0.0506429 0.357803 0.0126817)
(-0.0526001 0.374842 0.0120256)
(-0.0496798 0.390022 0.0114836)
(-0.0450964 0.402699 0.011407)
(-0.0409072 0.412717 0.0115914)
(-0.0378969 0.4205 0.0119041)
(-0.0360367 0.426005 0.0121503)
(-0.0349268 0.429472 0.0123079)
(-0.0341303 0.430774 0.0125484)
(-0.0338641 0.429885 0.0128933)
(-0.0337766 0.42669 0.0131549)
(-0.0334194 0.42133 0.0133263)
(-0.0323725 0.414062 0.0133544)
(-0.0304114 0.405216 0.0132545)
(-0.0270486 0.395204 0.0130141)
(-0.0223048 0.384056 0.012652)
(-0.0159699 0.371995 0.0121958)
(-0.00836123 0.358574 0.0117376)
(0.000128522 0.343698 0.011454)
(0.00832466 0.326701 0.011417)
(0.0143209 0.307979 0.0116666)
(0.0157337 0.288257 0.0118252)
(0.011892 0.270042 0.0114174)
(0.00363611 0.25535 0.0102604)
(-0.0070981 0.24625 0.00812313)
(-0.0175905 0.242326 0.00489463)
(-0.0230386 0.235597 0.00014598)
(-0.0208839 0.196035 -0.00636832)
(-0.00563332 0.0813469 -0.0079337)
(0.0051433 0.10274 -0.00795881)
(0.0161725 0.246298 -0.00540407)
(0.0123291 0.294015 0.00142105)
(0.00221864 0.303948 0.00622672)
(-0.0118169 0.311919 0.00904229)
(-0.023939 0.324328 0.0101733)
(-0.0322665 0.33991 0.0102637)
(-0.0354564 0.356449 0.00969051)
(-0.0346028 0.371621 0.00913237)
(-0.0323392 0.384531 0.00898736)
(-0.0305635 0.394882 0.00908141)
(-0.030065 0.402894 0.00930311)
(-0.030878 0.408463 0.00947259)
(-0.0325286 0.411737 0.00957493)
(-0.0346428 0.412581 0.00980111)
(-0.0373772 0.410893 0.0101305)
(-0.0402158 0.406661 0.0103539)
(-0.0424978 0.400078 0.0104678)
(-0.0436934 0.391545 0.0104397)
(-0.0435073 0.381477 0.0103048)
(-0.0415517 0.370355 0.0100708)
(-0.037913 0.358303 0.00978018)
(-0.0325773 0.345528 0.00943805)
(-0.025946 0.331691 0.00910327)
(-0.0185577 0.316691 0.0088912)
(-0.0115444 0.300051 0.00889691)
(-0.00655132 0.282131 0.00909503)
(-0.00546344 0.263871 0.00915251)
(-0.00860217 0.24763 0.00867436)
(-0.0150173 0.235278 0.00751799)
(-0.0227226 0.228156 0.00553543)
(-0.0291066 0.224707 0.00264886)
(-0.0300491 0.216517 -0.00159256)
(-0.0236415 0.176924 -0.00718717)
(-0.0058405 0.0719989 -0.00766412)
(0.00558728 0.0938321 -0.00785503)
(0.0198517 0.228193 -0.00664073)
(0.0207883 0.276724 -0.000523063)
(0.0150973 0.288422 0.00400136)
(0.00444448 0.296398 0.00683447)
(-0.00600959 0.308409 0.0081542)
(-0.0138838 0.323701 0.00841619)
(-0.0179431 0.340359 0.00801498)
(-0.018864 0.356117 0.00752483)
(-0.018827 0.369885 0.00738878)
(-0.0195435 0.381128 0.0074665)
(-0.021799 0.389898 0.00766847)
(-0.0256434 0.395918 0.00781119)
(-0.0304747 0.399265 0.00788916)
(-0.0359789 0.399786 0.00810883)
(-0.0421987 0.397288 0.00839489)
(-0.0483681 0.391868 0.00853628)
(-0.0535535 0.383774 0.00853664)
(-0.0570926 0.373629 0.00840172)
(-0.0586522 0.361947 0.00817938)
(-0.0579557 0.34933 0.00789874)
(-0.055198 0.33598 0.00761181)
(-0.0505594 0.322125 0.00733866)
(-0.0445717 0.307521 0.00712911)
(-0.0378978 0.29206 0.00699232)
(-0.0316199 0.275456 0.00695736)
(-0.0271419 0.258127 0.00701204)
(-0.0259238 0.241161 0.00690454)
(-0.0279952 0.226658 0.00631672)
(-0.0322988 0.216149 0.00517471)
(-0.0368479 0.210257 0.00337991)
(-0.0392604 0.206668 0.000845088)
(-0.0361103 0.196927 -0.00293024)
(-0.0259831 0.157769 -0.00758188)
(-0.00602563 0.0624933 -0.00740687)
(0.0058874 0.0843493 -0.00762511)
(0.0233556 0.209488 -0.00749823)
(0.0288912 0.258377 -0.00207256)
(0.0275414 0.272176 0.00214237)
(0.0205128 0.280921 0.00493893)
(0.0122875 0.292856 0.00648803)
(0.00520345 0.308295 0.00705606)
(0.000624601 0.325642 0.00696237)
(-0.00175777 0.342582 0.00666974)
(-0.00383176 0.3578 0.00666881)
(-0.00715184 0.370485 0.00684051)
(-0.0125123 0.380537 0.00712835)
(-0.0199206 0.387405 0.00731239)
(-0.0285146 0.391101 0.00740905)
(-0.0380736 0.391476 0.00762897)
(-0.0484593 0.388181 0.00783202)
(-0.0585489 0.381423 0.0078297)
(-0.067029 0.371488 0.00762809)
(-0.0730717 0.359348 0.00730699)
(-0.0763613 0.34563 0.00691621)
(-0.0767549 0.331128 0.00651957)
(-0.0746288 0.31612 0.00616267)
(-0.0703622 0.300868 0.00587151)
(-0.0646337 0.285205 0.00568901)
(-0.0582325 0.269059 0.00560848)
(-0.0522124 0.252306 0.00551915)
(-0.0477643 0.235433 0.00538016)
(-0.0459502 0.219594 0.00504453)
(-0.0465498 0.206575 0.00433131)
(-0.0484478 0.197482 0.00323471)
(-0.0497522 0.192266 0.00165208)
(-0.0483919 0.188105 -0.000534162)
(-0.0414702 0.176852 -0.00392616)
(-0.0280522 0.138463 -0.00784545)
(-0.00627783 0.0527123 -0.00722654)
(0.0061849 0.0740554 -0.00746312)
(0.0267983 0.189754 -0.00796584)
(0.036875 0.238671 -0.00332352)
(0.0399073 0.254702 0.00061795)
(0.0367928 0.264674 0.00334415)
(0.0312604 0.277073 0.00511624)
(0.0255026 0.293001 0.00607023)
(0.0208944 0.311297 0.0064446)
(0.017422 0.329718 0.00654048)
(0.0133774 0.346882 0.00685361)
(0.00735694 0.36151 0.00727688)
(-0.0015673 0.373451 0.00784195)
(-0.0132783 0.381489 0.00816718)
(-0.0263657 0.385763 0.00833613)
(-0.0408325 0.386239 0.00856445)
(-0.0562991 0.382223 0.00863404)
(-0.071131 0.374023 0.00839636)
(-0.0834385 0.361899 0.00784521)
(-0.0921833 0.347392 0.007213)
(-0.0971705 0.331227 0.0065275)
(-0.0984247 0.314497 0.00591461)
(-0.0966117 0.297536 0.00539413)
(-0.0923286 0.280672 0.0049947)
(-0.0864373 0.263787 0.00472872)
(-0.0798224 0.246847 0.00456568)
(-0.0735259 0.229878 0.00437901)
(-0.0685691 0.213434 0.00406419)
(-0.0656654 0.19864 0.00352914)
(-0.0644006 0.186905 0.00273829)
(-0.0636559 0.178856 0.00173781)
(-0.0617055 0.17388 0.000377356)
(-0.0567749 0.168862 -0.00156422)
(-0.0463117 0.156229 -0.00476605)
(-0.0299921 0.119198 -0.0083137)
(-0.00671533 0.0425148 -0.00720699)
(0.00657431 0.0627638 -0.00740731)
(0.0302764 0.168597 -0.00819386)
(0.0449086 0.217251 -0.00426696)
(0.0524315 0.235503 -0.000584547)
(0.0534919 0.246972 0.00203699)
(0.0511634 0.260116 0.00401115)