/*--------------------------------*- C++ -*----------------------------------*\
| =========                 |                                                 |
| \\      /  F ield         | OpenFOAM: The Open Source CFD Toolbox           |
|  \\    /   O peration     | Version:  2.3.1                                 |
|   \\  /    A nd           | Web:      www.OpenFOAM.org                      |
|    \\/     M anipulation  |                                                 |
\*---------------------------------------------------------------------------*/
FoamFile
{
    version     2.0;
    format      ascii;
    class       volScalarField;
    location    "0";
    object      T;
}
// * * * * * * * * * * * * * * * * * * * * * * * * * * * * * * * * * * * * * //

dimensions      [0 0 0 1 0 0 0];

internalField   nonuniform List<scalar> 
1227
(
290.21
290.21
290.22
290.245
290.265
290.29
290.31
290.32
290.325
290.33
290.33
290.335
290.33
290.33
290.33
290.32
290.315
290.31
290.3
290.295
290.285
290.275
290.27
290.265
290.255
290.25
290.245
290.24
290.23
290.23
290.22
290.215
290.21
290.2
290.195
290.2
290.2
290.2
290.23
290.255
290.29
290.31
290.32
290.33
290.34
290.34
290.34
290.34
290.34
290.33
290.33
290.32
290.315
290.31
290.3
290.295
290.285
290.275
290.27
290.265
290.26
290.25
290.24
290.225
290.215
290.205
290.205
290.195
290.2
290.2
290.19
290.175
290.18
290.21
290.25
290.29
290.315
290.33
290.335
290.34
290.34
290.34
290.33
290.33
290.32
290.32
290.31
290.305
290.295
290.29
290.285
290.275
290.265
290.26
290.255
290.25
290.24
290.2
290.17
290.155
290.15
290.16
290.165
290.175
290.185
290.17
290.15
290.16
290.195
290.24
290.29
290.325
290.115
290.105
290.105
290.105
290.115
290.135
290.155
290.17
290.145
290.115
290.13
290.175
290.225
290.28
290.32
290.08
290.08
290.075
290.07
290.08
290.105
290.135
290.155
290.125
290.085
290.1
290.145
290.205
290.265
290.315
290.07
290.06
290.05
290.045
290.05
290.075
290.11
290.145
290.095
290.05
290.065
290.115
290.18
290.24
290.29
290.07
290.05
290.04
290.025
290.02
290.04
290.085
290.125
290.07
290.015
290.025
290.08
290.145
290.21
290.26
290.065
290.045
290.02
290.005
289.995
290.01
290.06
290.115
290.04
289.98
289.985
290.035
290.1
290.16
290.22
290.055
290.035
290.005
289.98
289.97
289.98
290.035
290.095
290.005
289.94
289.935
289.98
290.04
290.105
290.17
290.035
290.015
289.98
289.955
289.94
289.955
290
290.08
289.975
289.9
289.885
289.92
289.975
290.03
290.085
290.015
289.985
289.955
289.93
289.915
289.925
289.975
290.065
289.94
289.855
289.835
289.86
289.895
289.94
289.98
289.98
289.975
289.975
289.965
289.965
289.965
289.975
289.985
289.995
289.995
289.995
289.99
289.965
289.94
289.935
289.945
289.955
289.965
289.965
289.975
289.975
289.945
289.92
289.895
289.885
289.905
289.95
290.05
289.91
289.815
289.785
289.8
289.83
289.86
289.885
289.895
289.9
289.905
289.92
289.945
289.98
290.015
290.045
290.065
290.075
290.065
290.04
289.985
289.945
289.93
289.925
289.935
289.935
289.935
289.935
289.925
289.905
289.88
289.865
289.86
289.875
289.925
290.035
289.875
289.77
289.74
289.745
289.77
289.795
289.815
289.825
289.84
289.865
289.91
289.975
290.07
290.15
290.21
290.225
290.215
290.175
290.105
290.015
289.945
289.915
289.905
289.905
289.895
289.895
289.885
289.875
289.86
289.85
289.835
289.83
289.85
289.905
290.02
289.83
289.725
289.69
289.7
289.72
289.74
289.755
289.775
289.8
289.85
289.95
290.1
290.275
290.43
290.51
290.495
290.43
290.325
290.185
290.04
289.95
289.895
289.875
289.865
289.865
289.855
289.845
289.835
289.825
289.81
289.805
289.8
289.82
289.88
290
289.795
289.68
289.65
289.655
289.675
289.695
289.71
289.73
289.78
289.875
290.065
290.35
290.67
290.915
291.01
290.935
290.745
290.525
290.285
290.08
289.95
289.88
289.845
289.835
289.825
289.82
289.81
289.805
289.795
289.785
289.775
289.78
289.8
289.86
289.985
289.755
289.635
289.61
289.615
289.635
289.655
289.675
289.705
289.775
289.945
290.275
290.775
291.31
291.695
291.795
291.595
291.205
290.8
290.415
290.135
289.96
289.865
289.82
289.805
289.795
289.785
289.78
289.775
289.765
289.76
289.75
289.75
289.77
289.835
289.975
289.72
289.6
289.575
289.585
289.6
289.625
289.64
289.685
289.785
290.05
290.585
291.415
292.265
292.83
292.955
292.6
291.925
291.21
290.62
290.225
289.985
289.86
289.8
289.775
289.765
289.76
289.755
289.75
289.735
289.73
289.725
289.725
289.75
289.815
289.96
289.69
289.57
289.545
289.55
289.57
289.59
289.615
289.665
289.81
290.18
290.985
292.31
293.56
294.365
294.55
294.085
293.075
291.87
290.945
290.365
290.03
289.855
289.78
289.745
289.735
289.735
289.73
289.72
289.715
289.705
289.7
289.7
289.725
289.795
289.95
289.67
289.545
289.52
289.525
289.54
289.56
289.585
289.65
289.83
290.315
291.435
293.48
295.165
296.125
296.39
295.955
294.73
292.865
291.415
290.55
290.08
289.855
289.76
289.725
289.715
289.71
289.705
289.7
289.69
289.68
289.675
289.68
289.705
289.775
289.935
289.65
289.525
289.5
289.5
289.515
289.535
289.56
289.625
289.825
290.395
291.845
294.92
296.81
297.655
297.885
297.61
296.52
294.095
291.97
290.745
290.135
289.855
289.74
289.705
289.695
289.69
289.68
289.675
289.665
289.66
289.655
289.655
289.685
289.755
289.925
289.64
289.505
289.48
289.48
289.495
289.51
289.535
289.595
289.78
290.355
292.045
296.585
298.13
298.595
298.705
298.565
297.82
295.07
292.325
290.865
290.16
289.845
289.72
289.685
289.675
289.67
289.66
289.655
289.645
289.635
289.625
289.635
289.66
289.735
289.915
289.63
289.495
289.465
289.465
289.475
289.49
289.51
289.555
289.7
290.15
291.75
298.495
298.98
299.04
299.05
299.04
298.81
295.06
292.22
290.825
290.13
289.815
289.7
289.665
289.655
289.65
289.64
289.635
289.625
289.615
289.605
289.61
289.635
289.71
289.905
289.625
289.485
289.45
289.45
289.46
289.475
289.485
289.52
289.605
289.82
290.335
292.935
291.655
290.63
290.055
289.775
289.675
289.645
289.635
289.63
289.62
289.615
289.605
289.595
289.585
289.59
289.615
289.69
289.885
289.62
289.475
289.44
289.435
289.45
289.455
289.465
289.49
289.545
289.65
289.85
291.865
291.145
290.41
289.96
289.735
289.655
289.625
289.62
289.61
289.605
289.595
289.585
289.575
289.565
289.57
289.59
289.665
289.87
289.61
289.465
289.435
289.425
289.43
289.445
289.455
289.47
289.505
289.575
289.715
291.275
290.765
290.22
289.875
289.695
289.625
289.61
289.6
289.595
289.59
289.575
289.565
289.555
289.55
289.55
289.57
289.635
289.845
289.595
289.455
289.425
289.425
289.425
289.435
289.445
289.46
289.485
289.54
289.645
290.905
290.485
290.075
289.8
289.66
289.605
289.59
289.585
289.58
289.57
289.56
289.55
289.54
289.53
289.53
289.55
289.605
289.82
289.575
289.445
289.42
289.415
289.42
289.43
289.435
289.45
289.47
289.515
289.6
290.655
290.29
289.955
289.74
289.63
289.585
289.575
289.57
289.56
289.555
289.545
289.535
289.525
289.52
289.515
289.525
289.575
289.77
289.545
289.435
289.41
289.415
289.42
289.42
289.43
289.44
289.46
289.495
289.575
290.455
290.15
289.87
289.695
289.605
289.575
289.555
289.555
289.545
289.54
289.535
289.525
289.515
289.505
289.505
289.505
289.545
289.705
289.515
289.42
289.41
289.405
289.41
289.42
289.425
289.43
289.45
289.485
289.555
290.265
290.035
289.8
289.655
289.585
289.555
289.545
289.535
289.535
289.525
289.52
289.515
289.505
289.49
289.49
289.49
289.52
289.635
289.47
289.41
289.405
289.405
289.41
289.42
289.42
289.43
289.445
289.475
289.495
289.92
289.91
289.74
289.62
289.565
289.54
289.53
289.525
289.515
289.515
289.51
289.505
289.495
289.49
289.48
289.48
289.49
289.565
289.425
289.4
289.395
289.4
289.41
289.42
289.42
289.43
289.44
289.445
289.395
289.295
289.23
289.205
289.215
289.265
289.375
289.6
289.735
289.69
289.6
289.55
289.525
289.515
289.515
289.505
289.505
289.5
289.495
289.485
289.48
289.47
289.47
289.47
289.51
289.4
289.395
289.395
289.405
289.415
289.42
289.425
289.43
289.435
289.43
289.375
289.275
289.205
289.185
289.185
289.225
289.33
289.49
289.635
289.645
289.58
289.535
289.515
289.505
289.5
289.495
289.495
289.495
289.485
289.48
289.475
289.47
289.46
289.465
289.48
289.39
289.385
289.39
289.405
289.415
289.425
289.43
289.43
289.435
289.415
289.355
289.25
289.18
289.16
289.16
289.195
289.285
289.45
289.575
289.61
289.56
289.52
289.505
289.495
289.49
289.485
289.485
289.485
289.485
289.475
289.47
289.46
289.455
289.455
289.46
289.385
289.38
289.39
289.41
289.42
289.43
289.435
289.435
289.43
289.415
289.345
289.235
289.17
289.155
289.155
289.175
289.265
289.425
289.545
289.58
289.545
289.51
289.5
289.49
289.48
289.48
289.48
289.48
289.475
289.475
289.465
289.455
289.45
289.45
289.45
289.375
289.38
289.39
289.41
289.43
289.445
289.45
289.45
289.44
289.415
289.355
289.255
289.185
289.17
289.17
289.195
289.29
289.435
289.535
289.555
289.53
289.5
289.49
289.48
289.48
289.48
289.475
289.475
289.475
289.465
289.46
289.45
289.44
289.44
289.445
289.375
289.385
289.395
289.42
289.44
289.46
289.475
289.47
289.45
289.425
289.38
289.3
289.25
289.23
289.23
289.265
289.35
289.455
289.525
289.54
289.52
289.5
289.49
289.49
289.485
289.485
289.48
289.47
289.465
289.455
289.45
289.44
289.44
289.435
289.435
289.385
289.39
289.405
289.435
289.465
289.495
289.52
289.515
289.48
289.455
289.42
289.375
289.35
289.34
289.345
289.37
289.42
289.485
289.53
289.535
289.52
289.51
289.505
289.51
289.505
289.5
289.49
289.47
289.46
289.45
289.44
289.43
289.43
289.43
289.43
289.425
289.415
289.435
289.47
289.515
289.555
289.58
289.575
289.54
289.5
289.47
289.445
289.44
289.44
289.445
289.455
289.485
289.52
289.54
289.54
289.535
289.535
289.545
289.545
289.54
289.53
289.505
289.485
289.465
289.45
289.44
289.43
289.43
289.425
289.43
289.56
289.5
289.51
289.56
289.61
289.64
289.655
289.645
289.61
289.56
289.525
289.515
289.51
289.515
289.515
289.52
289.535
289.55
289.565
289.57
289.58
289.58
289.59
289.59
289.585
289.575
289.55
289.525
289.495
289.475
289.455
289.445
289.44
289.44
289.455
289.685
289.7
289.705
289.715
289.725
289.725
289.715
289.695
289.665
289.615
289.58
289.56
289.555
289.555
289.555
289.565
289.575
289.585
289.595
289.605
289.615
289.625
289.63
289.635
289.635
289.63
289.615
289.595
289.575
289.555
289.54
289.53
289.53
289.535
289.545
)
;


boundaryField
{
    floor
    {
        type            empty;
    }
    ceiling
    {
        type            empty;
    }
    fixedWalls
    {
        type            zeroGradient;
    }
    rack2796428BA49E0232CAC645AEBC8DA5C1_fixedWall
    {
        type            zeroGradient;
    }
    rack2796428BA49E0232CAC645AEBC8DA5C1_inlet
    {
        //type            zeroGradient;
        type            fixedValue;
	value		uniform 288.15;

/* type            groovyBC;
        refValue        uniform 300;
        refGradient     uniform 0;
        valueFraction   uniform 1;
        value           uniform 300;
        valueExpression "Trackoutlet-2.00/(1.015*1.18*0.17)";
        gradientExpression "0";
        fractionExpression "1";
        evaluateDuringConstruction 0;
        variables       "Trackoutlet{rack2796428BA49E0232CAC645AEBC8DA5C1_outlet}=sum(T*mag(Sf()))/sum(mag(Sf()));";
        timelines       (
);
        lookuptables    (
);*/
    }
    rack2796428BA49E0232CAC645AEBC8DA5C1_outlet
    {
        //type            fixedValue;
	//value		uniform 300.15;
        type            zeroGradient;
        /*type            groovyBC;
        refValue        uniform 300;
        refGradient     uniform 0;
        valueFraction   uniform 1;
        value           uniform 300;
        valueExpression "Trackinlet+2.00/(1.015*1.18*0.17)";
        gradientExpression "0";
        fractionExpression "1";
        evaluateDuringConstruction 0;
        variables       "Trackinlet{rack2796428BA49E0232CAC645AEBC8DA5C1_inlet}=sum(T*mag(Sf()))/sum(mag(Sf()));";
        timelines       (
);
        lookuptables    (
);*/
    }

    acu380F56D59CF2B3DF6EFF9D0E6E8D39CB_fixedWall
    {
        type            zeroGradient;
    }

}


// ************************************************************************* //
