/*--------------------------------*- C++ -*----------------------------------*\
| =========                 |                                                 |
| \\      /  F ield         | OpenFOAM: The Open Source CFD Toolbox           |
|  \\    /   O peration     | Version:  2.3.1                                 |
|   \\  /    A nd           | Web:      www.OpenFOAM.org                      |
|    \\/     M anipulation  |                                                 |
\*---------------------------------------------------------------------------*/
FoamFile
{
    version     2.0;
    format      ascii;
    class       volVectorField;
    location    "60.2";
    object      U;
}
// * * * * * * * * * * * * * * * * * * * * * * * * * * * * * * * * * * * * * //

dimensions      [0 1 -1 0 0 0 0];

internalField   nonuniform List<vector> 
7968
(				
(	-0.0948255	0.104982	0	)
(	-0.188403	0.0920351	0	)
(	-0.301223	0.0777373	0	)
(	-0.40247	0.0660128	0	)
(	-0.487475	0.0559269	0	)
(	-0.558596	0.0468567	0	)
(	-0.617752	0.0386836	0	)
(	-0.666036	0.0313748	0	)
(	-0.704379	0.0248713	0	)
(	-0.733731	0.0191048	0	)
(	-0.755012	0.014013	0	)
(	-0.769087	0.00954171	0	)
(	-0.776773	0.00564612	0	)
(	-0.778887	0.00228237	0	)
(	-0.776046	-0.000631237	0	)
(	-0.768993	-0.0031457	0	)
(	-0.758325	-0.00529138	0	)
(	-0.744599	-0.00709001	0	)
(	-0.728358	-0.00856098	0	)
(	-0.710127	-0.0097235	0	)
(	-0.6904	-0.0105982	0	)
(	-0.669635	-0.0112084	0	)
(	-0.648247	-0.0115806	0	)
(	-0.626605	-0.0117446	0	)
(	-0.60502	-0.0117326	0	)
(	-0.58375	-0.0115778	0	)
(	-0.562993	-0.0113127	0	)
(	-0.542895	-0.0109675	0	)
(	-0.523553	-0.0105685	0	)
(	-0.505028	-0.0101379	0	)
(	-0.487346	-0.0096932	0	)
(	-0.47051	-0.00924772	0	)
(	-0.454506	-0.00881082	0	)
(	-0.439306	-0.00838881	0	)
(	-0.424877	-0.00798559	0	)
(	-0.411177	-0.00760336	0	)
(	-0.398164	-0.00724318	0	)
(	-0.385793	-0.00690553	0	)
(	-0.374018	-0.00659056	0	)
(	-0.362794	-0.00629844	0	)
(	-0.352075	-0.0060295	0	)
(	-0.341813	-0.00578437	0	)
(	-0.331962	-0.00556406	0	)
(	-0.322471	-0.00537014	0	)
(	-0.313288	-0.00520476	0	)
(	-0.304358	-0.00507087	0	)
(	-0.295619	-0.00497232	0	)
(	-0.287004	-0.00491415	0	)
(	-0.278434	-0.00490274	0	)
(	-0.26982	-0.0049462	0	)
(	-0.261058	-0.00505458	0	)
(	-0.252025	-0.00524031	0	)
(	-0.242574	-0.00551831	0	)
(	-0.232535	-0.00590639	0	)
(	-0.221704	-0.00642501	0	)
(	-0.209846	-0.00709731	0	)
(	-0.196693	-0.00794827	0	)
(	-0.181942	-0.00900456	0	)
(	-0.165271	-0.0102945	0	)
(	-0.146344	-0.0118498	0	)
(	-0.124834	-0.0137196	0	)
(	-0.100427	-0.0160174	0	)
(	-0.0727753	-0.0191387	0	)
(	-0.0472405	-0.0232314	0	)
(	-0.00770638	-0.0289946	0	)
(	0.0423842	-0.0293532	0	)
(	0.082483	-0.0264287	0	)
(	0.121773	-0.0236159	0	)
(	0.158143	-0.0210106	0	)
(	0.191348	-0.0185459	0	)
(	0.221248	-0.0161711	0	)
(	0.247744	-0.0138439	0	)
(	0.270741	-0.0115246	0	)
(	0.290132	-0.00917473	0	)
(	0.305781	-0.00675586	0	)
(	0.317526	-0.00422991	0	)
(	0.325177	-0.00155983	0	)
(	0.328497	0.00129235	0	)
(	0.327106	0.00437877	0	)
(	0.320715	0.00780154	0	)
(	0.308857	0.0116039	0	)
(	0.29106	0.0158104	0	)
(	0.266874	0.0204399	0	)
(	0.235765	0.0254905	0	)
(	0.196762	0.0309835	0	)
(	0.148627	0.0371481	0	)
(	0.0936671	0.0443391	0	)
(	0.0474588	0.050639	0	)
(	-0.0881218	0.204677	0	)
(	-0.185079	0.178667	0	)
(	-0.291151	0.153718	0	)
(	-0.383814	0.132165	0	)
(	-0.462065	0.112569	0	)
(	-0.527944	0.0943925	0	)
(	-0.582883	0.0776665	0	)
(	-0.627839	0.0624271	0	)
(	-0.663672	0.048626	0	)
(	-0.691231	0.0361854	0	)
(	-0.711333	0.0250273	0	)
(	-0.72474	0.0150808	0	)
(	-0.732178	0.00628658	0	)
(	-0.734368	-0.00141787	0	)
(	-0.731747	-0.00811221	0	)
(	-0.725017	-0.0138843	0	)
(	-0.714734	-0.0187863	0	)
(	-0.701431	-0.0228584	0	)
(	-0.685634	-0.0261398	0	)
(	-0.667851	-0.0286728	0	)
(	-0.648562	-0.030506	0	)
(	-0.628216	-0.0316975	0	)
(	-0.607221	-0.0323152	0	)
(	-0.585943	-0.032436	0	)
(	-0.564695	-0.032142	0	)
(	-0.543738	-0.0315171	0	)
(	-0.523279	-0.0306412	0	)
(	-0.503475	-0.0295864	0	)
(	-0.484441	-0.0284145	0	)
(	-0.466251	-0.027176	0	)
(	-0.448951	-0.0259108	0	)
(	-0.432556	-0.0246491	0	)
(	-0.417064	-0.0234134	0	)
(	-0.402456	-0.0222194	0	)
(	-0.3887	-0.0210782	0	)
(	-0.375754	-0.0199969	0	)
(	-0.363571	-0.0189804	0	)
(	-0.352099	-0.0180314	0	)
(	-0.341285	-0.0171517	0	)
(	-0.331072	-0.0163426	0	)
(	-0.321405	-0.0156051	0	)
(	-0.312227	-0.0149407	0	)
(	-0.303482	-0.0143514	0	)
(	-0.295112	-0.0138403	0	)
(	-0.287059	-0.0134119	0	)
(	-0.279263	-0.0130725	0	)
(	-0.271659	-0.012831	0	)
(	-0.264177	-0.0126991	0	)
(	-0.256741	-0.0126921	0	)
(	-0.249263	-0.0128295	0	)
(	-0.241642	-0.0131359	0	)
(	-0.23376	-0.0136414	0	)
(	-0.225477	-0.0143821	0	)
(	-0.216627	-0.0154	0	)
(	-0.207014	-0.0167419	0	)
(	-0.196407	-0.0184579	0	)
(	-0.184534	-0.0205976	0	)
(	-0.171088	-0.0232048	0	)
(	-0.155724	-0.0263112	0	)
(	-0.138079	-0.0299284	0	)
(	-0.117795	-0.034049	0	)
(	-0.0945854	-0.0386733	0	)
(	-0.067721	-0.0439783	0	)
(	-0.0412088	-0.0502795	0	)
(	-0.00566599	-0.0582121	0	)
(	0.0362768	-0.0606809	0	)
(	0.0725059	-0.0585172	0	)
(	0.108396	-0.0550915	0	)
(	0.142157	-0.0510098	0	)
(	0.173366	-0.0465372	0	)
(	0.201738	-0.0417982	0	)
(	0.227068	-0.0368504	0	)
(	0.249195	-0.0317092	0	)
(	0.267968	-0.026361	0	)
(	0.283232	-0.0207716	0	)
(	0.294813	-0.0148935	0	)
(	0.302521	-0.00867126	0	)
(	0.306129	-0.00204463	0	)
(	0.305297	0.00506867	0	)
(	0.299807	0.0127688	0	)
(	0.289311	0.0211158	0	)
(	0.273399	0.0301459	0	)
(	0.251659	0.0398909	0	)
(	0.223611	0.0503455	0	)
(	0.188491	0.0614947	0	)
(	0.145144	0.0735695	0	)
(	0.0938488	0.0872795	0	)
(	0.0454004	0.101898	0	)
(	-0.0735063	0.326019	0	)
(	-0.167	0.287826	0	)
(	-0.26537	0.250348	0	)
(	-0.350868	0.21612	0	)
(	-0.423498	0.184456	0	)
(	-0.484799	0.155141	0	)
(	-0.535897	0.128207	0	)
(	-0.577663	0.103632	0	)
(	-0.610902	0.0813249	0	)
(	-0.636386	0.0611671	0	)
(	-0.654854	0.0430391	0	)
(	-0.666996	0.0268287	0	)
(	-0.673481	0.0124345	0	)
(	-0.674936	-0.000279731	0	)
(	-0.671776	-0.0114754	0	)
(	-0.664638	-0.0212148	0	)
(	-0.654044	-0.0295432	0	)
(	-0.640508	-0.0365081	0	)
(	-0.624544	-0.042162	0	)
(	-0.606653	-0.0465661	0	)
(	-0.587314	-0.0497945	0	)
(	-0.56698	-0.0519373	0	)
(	-0.546071	-0.0531018	0	)
(	-0.524967	-0.0534101	0	)
(	-0.504004	-0.052995	0	)
(	-0.483464	-0.0519928	0	)
(	-0.463573	-0.0505356	0	)
(	-0.444501	-0.0487444	0	)
(	-0.426366	-0.0467255	0	)
(	-0.409238	-0.0445688	0	)
(	-0.393149	-0.0423478	0	)
(	-0.378095	-0.0401209	0	)
(	-0.364052	-0.0379331	0	)
(	-0.350973	-0.0358176	0	)
(	-0.338802	-0.0337983	0	)
(	-0.327475	-0.0318913	0	)
(	-0.316922	-0.0301069	0	)
(	-0.307077	-0.028451	0	)
(	-0.29787	-0.0269268	0	)
(	-0.289238	-0.0255355	0	)
(	-0.281115	-0.0242776	0	)
(	-0.273441	-0.0231536	0	)
(	-0.266158	-0.022165	0	)
(	-0.259209	-0.0213146	0	)
(	-0.252537	-0.0206079	0	)
(	-0.246085	-0.0200531	0	)
(	-0.239794	-0.0196626	0	)
(	-0.233602	-0.0194539	0	)
(	-0.227439	-0.0194504	0	)
(	-0.22123	-0.0196825	0	)
(	-0.214886	-0.0201896	0	)
(	-0.208305	-0.0210203	0	)
(	-0.201363	-0.0222343	0	)
(	-0.193916	-0.0239021	0	)
(	-0.185788	-0.0261048	0	)
(	-0.176769	-0.0289314	0	)
(	-0.166611	-0.0324745	0	)
(	-0.155019	-0.0368215	0	)
(	-0.141661	-0.0420414	0	)
(	-0.126166	-0.0481657	0	)
(	-0.108166	-0.0551693	0	)
(	-0.0873946	-0.0629826	0	)
(	-0.0629954	-0.0716907	0	)
(	-0.0376604	-0.0817955	0	)
(	-0.00671211	-0.0923226	0	)
(	0.0285504	-0.0955324	0	)
(	0.0604094	-0.0929408	0	)
(	0.0923073	-0.0881221	0	)
(	0.122741	-0.0820267	0	)
(	0.151249	-0.0751132	0	)
(	0.177493	-0.0676243	0	)
(	0.201208	-0.0596891	0	)
(	0.222167	-0.051363	0	)
(	0.240162	-0.042649	0	)
(	0.254987	-0.0335127	0	)
(	0.266425	-0.0238935	0	)
(	0.274251	-0.013717	0	)
(	0.278222	-0.00290709	0	)
(	0.278026	0.00861419	0	)
(	0.273429	0.0210007	0	)
(	0.264147	0.0343797	0	)
(	0.249807	0.0488335	0	)
(	0.23002	0.0644425	0	)
(	0.204337	0.0812716	0	)
(	0.17212	0.0993818	0	)
(	0.132437	0.118988	0	)
(	0.0850773	0.140698	0	)
(	0.038139	0.164079	0	)
(	-0.0626224	0.433717	0	)
(	-0.149146	0.385804	0	)
(	-0.238288	0.336808	0	)
(	-0.315887	0.290914	0	)
(	-0.382235	0.248183	0	)
(	-0.438383	0.208636	0	)
(	-0.485188	0.17229	0	)
(	-0.523393	0.139083	0	)
(	-0.553705	0.108893	0	)
(	-0.576808	0.0815728	0	)
(	-0.593354	0.0569684	0	)
(	-0.603962	0.0349303	0	)
(	-0.609243	0.0153164	0	)
(	-0.609707	-0.00206922	0	)
(	-0.605772	-0.0174053	0	)
(	-0.597992	-0.0307547	0	)
(	-0.586856	-0.042169	0	)
(	-0.57286	-0.0517071	0	)
(	-0.556508	-0.059435	0	)
(	-0.538301	-0.06543	0	)
(	-0.518729	-0.0697862	0	)
(	-0.498269	-0.0726193	0	)
(	-0.477377	-0.0740683	0	)
(	-0.456476	-0.0742955	0	)
(	-0.435942	-0.0734828	0	)
(	-0.41609	-0.071824	0	)
(	-0.397158	-0.0695117	0	)
(	-0.379307	-0.0667267	0	)
(	-0.362629	-0.0636308	0	)
(	-0.347157	-0.0603619	0	)
(	-0.332875	-0.0570326	0	)
(	-0.319736	-0.0537312	0	)
(	-0.30767	-0.0505236	0	)
(	-0.296594	-0.0474566	0	)
(	-0.286421	-0.0445611	0	)
(	-0.277063	-0.0418558	0	)
(	-0.268434	-0.0393504	0	)
(	-0.260454	-0.0370482	0	)
(	-0.253048	-0.0349487	0	)
(	-0.246147	-0.033049	0	)
(	-0.239687	-0.0313457	0	)
(	-0.233608	-0.0298356	0	)
(	-0.227854	-0.0285175	0	)
(	-0.222374	-0.0273923	0	)
(	-0.217117	-0.0264645	0	)
(	-0.212033	-0.0257429	0	)
(	-0.207071	-0.0252422	0	)
(	-0.20218	-0.0249835	0	)
(	-0.197301	-0.0249966	0	)
(	-0.192372	-0.0253207	0	)
(	-0.187319	-0.0260072	0	)
(	-0.182058	-0.0271205	0	)
(	-0.176484	-0.0287406	0	)
(	-0.170475	-0.0309635	0	)
(	-0.163879	-0.0339014	0	)
(	-0.156512	-0.0376807	0	)
(	-0.148152	-0.0424372	0	)
(	-0.138533	-0.0483048	0	)
(	-0.127346	-0.0553973	0	)
(	-0.114247	-0.0637785	0	)
(	-0.0988901	-0.0734276	0	)
(	-0.0810651	-0.0842343	0	)
(	-0.0600437	-0.0961726	0	)
(	-0.0373635	-0.109749	0	)
(	-0.0112352	-0.122459	0	)
(	0.0188926	-0.126325	0	)
(	0.0465209	-0.123412	0	)
(	0.0745327	-0.117627	0	)
(	0.101667	-0.110079	0	)
(	0.127467	-0.101338	0	)
(	0.151567	-0.0917185	0	)
(	0.173653	-0.0813923	0	)
(	0.193439	-0.0704381	0	)
(	0.210653	-0.0588677	0	)
(	0.225032	-0.0466435	0	)
(	0.236317	-0.033694	0	)
(	0.244246	-0.0199287	0	)
(	0.248561	-0.00525576	0	)
(	0.248984	0.0104112	0	)
(	0.245265	0.0272236	0	)
(	0.237182	0.0453435	0	)
(	0.224401	0.0648906	0	)
(	0.206583	0.0859835	0	)
(	0.183337	0.108738	0	)
(	0.15416	0.133276	0	)
(	0.118381	0.159802	0	)
(	0.0757544	0.188766	0	)
(	0.0324541	0.21924	0	)
(	-0.0541142	0.529594	0	)
(	-0.132872	0.473808	0	)
(	-0.21245	0.414794	0	)
(	-0.281948	0.358683	0	)
(	-0.341678	0.30618	0	)
(	-0.392304	0.25749	0	)
(	-0.434454	0.212652	0	)
(	-0.468735	0.171596	0	)
(	-0.49575	0.13419	0	)
(	-0.516094	0.100269	0	)
(	-0.530342	0.0696539	0	)
(	-0.539041	0.0421653	0	)
(	-0.542752	0.017623	0	)
(	-0.541852	-0.00423342	0	)
(	-0.536788	-0.0236039	0	)
(	-0.528017	-0.0405183	0	)
(	-0.515997	-0.0550101	0	)
(	-0.501211	-0.0671283	0	)
(	-0.484155	-0.0769335	0	)
(	-0.465341	-0.0845012	0	)
(	-0.445289	-0.0899294	0	)
(	-0.424526	-0.0933444	0	)
(	-0.403574	-0.0949072	0	)
(	-0.382926	-0.0948205	0	)
(	-0.363017	-0.093329	0	)
(	-0.344185	-0.0907081	0	)
(	-0.326656	-0.0872393	0	)
(	-0.310544	-0.0831885	0	)
(	-0.295873	-0.0787904	0	)
(	-0.282599	-0.0742396	0	)
(	-0.270634	-0.0696888	0	)
(	-0.259865	-0.0652513	0	)
(	-0.250171	-0.0610058	0	)
(	-0.24143	-0.0570032	0	)
(	-0.233526	-0.0532728	0	)
(	-0.226352	-0.049828	0	)
(	-0.219815	-0.0466711	0	)
(	-0.213828	-0.0437981	0	)
(	-0.208317	-0.0412007	0	)
(	-0.203215	-0.0388696	0	)
(	-0.198462	-0.036795	0	)
(	-0.194006	-0.0349688	0	)
(	-0.189797	-0.0333856	0	)
(	-0.185793	-0.0320433	0	)
(	-0.181951	-0.0309446	0	)
(	-0.178231	-0.0300979	0	)
(	-0.174594	-0.0295187	0	)
(	-0.171	-0.0292309	0	)
(	-0.167404	-0.0292688	0	)
(	-0.163758	-0.0296788	0	)
(	-0.160006	-0.0305221	0	)
(	-0.15608	-0.031877	0	)
(	-0.151901	-0.0338413	0	)
(	-0.147366	-0.0365342	0	)
(	-0.14235	-0.0400969	0	)
(	-0.136696	-0.044691	0	)
(	-0.130208	-0.0504921	0	)
(	-0.122649	-0.0576761	0	)
(	-0.113741	-0.0663942	0	)
(	-0.103181	-0.0767325	0	)
(	-0.0906675	-0.0886651	0	)
(	-0.0760381	-0.102037	0	)
(	-0.0587841	-0.116672	0	)
(	-0.0396576	-0.132798	0	)
(	-0.0184215	-0.147274	0	)
(	0.0066104	-0.15236	0	)
(	0.0305835	-0.149672	0	)
(	0.0550752	-0.143535	0	)
(	0.0792426	-0.135165	0	)
(	0.1026	-0.125189	0	)
(	0.124757	-0.11397	0	)
(	0.145362	-0.101715	0	)
(	0.16408	-0.0885207	0	)
(	0.180591	-0.0744134	0	)
(	0.194585	-0.0593649	0	)
(	0.20577	-0.0433124	0	)
(	0.213863	-0.0261746	0	)
(	0.218594	-0.00787079	0	)
(	0.219725	0.0116657	0	)
(	0.216988	0.0325759	0	)
(	0.210215	0.0550538	0	)
(	0.199108	0.0792509	0	)
(	0.183378	0.105315	0	)
(	0.162703	0.1334	0	)
(	0.136693	0.163664	0	)
(	0.104898	0.196318	0	)
(	0.0671441	0.231672	0	)
(	0.027971	0.268117	0	)
(	-0.0470814	0.614723	0	)
(	-0.118111	0.552077	0	)
(	-0.188497	0.484299	0	)
(	-0.250174	0.419216	0	)
(	-0.30333	0.358023	0	)
(	-0.34835	0.301084	0	)
(	-0.385684	0.248499	0	)
(	-0.415818	0.20023	0	)
(	-0.439264	0.156156	0	)
(	-0.456539	0.116108	0	)
(	-0.468151	0.0798897	0	)
(	-0.474582	0.0472951	0	)
(	-0.476345	0.0181026	0	)
(	-0.473659	-0.00800934	0	)
(	-0.467034	-0.0312267	0	)
(	-0.456829	-0.0515474	0	)
(	-0.443487	-0.0689832	0	)
(	-0.427481	-0.0835615	0	)
(	-0.409312	-0.0953199	0	)
(	-0.389517	-0.10431	0	)
(	-0.368673	-0.110612	0	)
(	-0.347387	-0.114339	0	)
(	-0.326282	-0.115666	0	)
(	-0.305949	-0.114844	0	)
(	-0.286892	-0.112212	0	)
(	-0.269455	-0.108174	0	)
(	-0.253805	-0.103146	0	)
(	-0.239956	-0.0975068	0	)
(	-0.227816	-0.0915767	0	)
(	-0.217229	-0.0856049	0	)
(	-0.208011	-0.0797725	0	)
(	-0.199975	-0.0742017	0	)
(	-0.192946	-0.068968	0	)
(	-0.186769	-0.0641117	0	)
(	-0.181307	-0.0596482	0	)
(	-0.176444	-0.0555761	0	)
(	-0.172084	-0.0518836	0	)
(	-0.168145	-0.0485544	0	)
(	-0.164559	-0.0455699	0	)
(	-0.161266	-0.0429115	0	)
(	-0.158217	-0.0405621	0	)
(	-0.155369	-0.0385075	0	)
(	-0.152684	-0.0367374	0	)
(	-0.150128	-0.0352464	0	)
(	-0.147673	-0.0340345	0	)
(	-0.145288	-0.0331089	0	)
(	-0.142949	-0.0324852	0	)
(	-0.140626	-0.0321889	0	)
(	-0.13829	-0.0322574	0	)
(	-0.13591	-0.0327424	0	)
(	-0.133448	-0.033713	0	)
(	-0.130858	-0.0352591	0	)
(	-0.128081	-0.0374947	0	)
(	-0.125042	-0.0405604	0	)
(	-0.121642	-0.0446248	0	)
(	-0.117753	-0.0498826	0	)
(	-0.113208	-0.0565471	0	)
(	-0.107803	-0.0648321	0	)
(	-0.101299	-0.07492	0	)
(	-0.0934394	-0.0869116	0	)
(	-0.0839767	-0.100769	0	)
(	-0.0727647	-0.116293	0	)
(	-0.0594656	-0.133168	0	)
(	-0.0444229	-0.151213	0	)
(	-0.0277596	-0.167254	0	)
(	-0.00834533	-0.174155	0	)
(	0.0126239	-0.172426	0	)
(	0.0340707	-0.16639	0	)
(	0.0557326	-0.157697	0	)
(	0.0770463	-0.146968	0	)
(	0.0975779	-0.134602	0	)
(	0.116945	-0.12083	0	)
(	0.134783	-0.105769	0	)
(	0.15074	-0.089459	0	)
(	0.164481	-0.0718919	0	)
(	0.175694	-0.0530242	0	)
(	0.184083	-0.032795	0	)
(	0.189373	-0.0111432	0	)
(	0.19135	0.0119771	0	)
(	0.189728	0.0366807	0	)
(	0.18438	0.0631813	0	)
(	0.175039	0.0916529	0	)
(	0.16146	0.122261	0	)
(	0.143378	0.155174	0	)
(	0.120495	0.190565	0	)
(	0.0925137	0.228634	0	)
(	0.059375	0.269598	0	)
(	0.0242919	0.311286	0	)
(	-0.0411008	0.690205	0	)
(	-0.104773	0.621317	0	)
(	-0.166628	0.54581	0	)
(	-0.220986	0.472833	0	)
(	-0.267814	0.403894	0	)
(	-0.307316	0.339502	0	)
(	-0.339812	0.279847	0	)
(	-0.365695	0.224948	0	)
(	-0.385402	0.174716	0	)
(	-0.399389	0.128986	0	)
(	-0.408105	0.08755	0	)
(	-0.411977	0.0501703	0	)
(	-0.411465	0.0165688	0	)
(	-0.406611	-0.013631	0	)
(	-0.39801	-0.0405527	0	)
(	-0.385939	-0.0641596	0	)
(	-0.370836	-0.0844353	0	)
(	-0.353171	-0.101369	0	)
(	-0.33346	-0.114952	0	)
(	-0.312287	-0.125183	0	)
(	-0.290311	-0.13209	0	)
(	-0.268257	-0.135755	0	)
(	-0.246888	-0.136353	0	)
(	-0.226934	-0.134208	0	)
(	-0.208979	-0.129814	0	)
(	-0.193344	-0.123787	0	)
(	-0.18007	-0.116732	0	)
(	-0.169004	-0.109173	0	)
(	-0.159883	-0.101515	0	)
(	-0.152406	-0.0940431	0	)
(	-0.14628	-0.086941	0	)
(	-0.141244	-0.0803133	0	)
(	-0.137077	-0.0742089	0	)
(	-0.133599	-0.0686397	0	)
(	-0.130663	-0.0635941	0	)
(	-0.128156	-0.0590468	0	)
(	-0.125988	-0.0549654	0	)
(	-0.12409	-0.0513182	0	)
(	-0.122404	-0.0480747	0	)
(	-0.120885	-0.045206	0	)
(	-0.119495	-0.0426871	0	)
(	-0.118206	-0.0404974	0	)
(	-0.116993	-0.038622	0	)
(	-0.115835	-0.0370515	0	)
(	-0.114714	-0.0357834	0	)
(	-0.113616	-0.0348231	0	)
(	-0.112528	-0.0341859	0	)
(	-0.111434	-0.0338977	0	)
(	-0.110323	-0.0339977	0	)
(	-0.10918	-0.0345407	0	)
(	-0.107986	-0.035602	0	)
(	-0.106719	-0.0372807	0	)
(	-0.105346	-0.0397045	0	)
(	-0.10382	-0.0430326	0	)
(	-0.102075	-0.0474582	0	)
(	-0.100013	-0.053206	0	)
(	-0.0975054	-0.0605233	0	)
(	-0.0943865	-0.0696592	0	)
(	-0.090464	-0.080825	0	)
(	-0.085531	-0.0941352	0	)
(	-0.0793739	-0.109545	0	)
(	-0.0718199	-0.126827	0	)
(	-0.0625941	-0.145567	0	)
(	-0.0518066	-0.165201	0	)
(	-0.0395155	-0.182712	0	)
(	-0.0247908	-0.191918	0	)
(	-0.0076177	-0.192257	0	)
(	0.0116838	-0.186881	0	)
(	0.0313665	-0.178216	0	)
(	0.0511337	-0.167109	0	)
(	0.0704438	-0.153956	0	)
(	0.0888906	-0.139006	0	)
(	0.106096	-0.122394	0	)
(	0.121698	-0.10418	0	)
(	0.135354	-0.0843756	0	)
(	0.146745	-0.0629644	0	)
(	0.155575	-0.0399113	0	)
(	0.161561	-0.0151784	0	)
(	0.164509	0.0112589	0	)
(	0.164107	0.0394738	0	)
(	0.16026	0.0696883	0	)
(	0.152728	0.102092	0	)
(	0.141298	0.13686	0	)
(	0.125749	0.174158	0	)
(	0.10585	0.214154	0	)
(	0.0814014	0.25703	0	)
(	0.052459	0.30296	0	)
(	0.0212092	0.349393	0	)
(	-0.0359503	0.75703	0	)
(	-0.0927938	0.682312	0	)
(	-0.146885	0.599913	0	)
(	-0.194509	0.519912	0	)
(	-0.235359	0.443998	0	)
(	-0.269536	0.372813	0	)
(	-0.29727	0.306659	0	)
(	-0.318885	0.245634	0	)
(	-0.334767	0.18969	0	)
(	-0.345325	0.138674	0	)
(	-0.350961	0.0923627	0	)
(	-0.352053	0.0504794	0	)
(	-0.348993	0.0126518	0	)
(	-0.341642	-0.0215191	0	)
(	-0.330713	-0.0520206	0	)
(	-0.316415	-0.0787998	0	)
(	-0.299177	-0.101813	0	)
(	-0.279467	-0.120992	0	)
(	-0.257818	-0.136252	0	)
(	-0.23488	-0.147497	0	)
(	-0.211422	-0.154672	0	)
(	-0.188327	-0.157786	0	)
(	-0.16655	-0.157004	0	)
(	-0.14702	-0.152757	0	)
(	-0.130444	-0.145796	0	)
(	-0.117065	-0.137079	0	)
(	-0.106699	-0.127483	0	)
(	-0.0989366	-0.117693	0	)
(	-0.0932856	-0.108174	0	)
(	-0.0892762	-0.0992073	0	)
(	-0.0865038	-0.0909331	0	)
(	-0.0846421	-0.0834027	0	)
(	-0.0834392	-0.0766112	0	)
(	-0.0827054	-0.0705229	0	)
(	-0.0823008	-0.065087	0	)
(	-0.0821234	-0.0602468	0	)
(	-0.082102	-0.0559444	0	)
(	-0.0821843	-0.0521328	0	)
(	-0.0823304	-0.0487688	0	)
(	-0.0825111	-0.0458134	0	)
(	-0.0827059	-0.0432338	0	)
(	-0.0829008	-0.0410037	0	)
(	-0.0830861	-0.0391037	0	)
(	-0.0832549	-0.0375214	0	)
(	-0.0834038	-0.0362509	0	)
(	-0.0835321	-0.0352962	0	)
(	-0.0836403	-0.0346716	0	)
(	-0.0837298	-0.034403	0	)
(	-0.0838036	-0.0345292	0	)
(	-0.083866	-0.0351062	0	)
(	-0.0839221	-0.0362119	0	)
(	-0.0839744	-0.0379517	0	)
(	-0.0840199	-0.0404625	0	)
(	-0.0840443	-0.0439178	0	)
(	-0.0840156	-0.0485308	0	)
(	-0.0838759	-0.0545534	0	)
(	-0.0835363	-0.0622668	0	)
(	-0.0828764	-0.0719574	0	)
(	-0.0817468	-0.0838687	0	)
(	-0.0799694	-0.0981366	0	)
(	-0.0773297	-0.114729	0	)
(	-0.0735944	-0.133418	0	)
(	-0.0684577	-0.153741	0	)
(	-0.061827	-0.174867	0	)
(	-0.053552	-0.19402	0	)
(	-0.0426966	-0.205941	0	)
(	-0.0287479	-0.209086	0	)
(	-0.0120551	-0.205555	0	)
(	0.00637602	-0.197407	0	)
(	0.0251677	-0.18615	0	)
(	0.0437385	-0.172443	0	)
(	0.0616348	-0.156559	0	)
(	0.0784897	-0.138647	0	)
(	0.0939525	-0.118776	0	)
(	0.107691	-0.0969858	0	)
(	0.119397	-0.0732845	0	)
(	0.128785	-0.0476632	0	)
(	0.135572	-0.0201046	0	)
(	0.139574	0.00940244	0	)
(	0.140457	0.040875	0	)
(	0.138142	0.0745287	0	)
(	0.132413	0.110565	0	)
(	0.123079	0.14916	0	)
(	0.109951	0.190472	0	)
(	0.0928375	0.234648	0	)
(	0.0715944	0.281845	0	)
(	0.0463822	0.332235	0	)
(	0.0186184	0.383045	0	)
(	-0.0314949	0.816131	0	)
(	-0.0821091	0.735885	0	)
(	-0.129212	0.64726	0	)
(	-0.170701	0.560919	0	)
(	-0.205974	0.478638	0	)
(	-0.235085	0.401189	0	)
(	-0.258202	0.329006	0	)
(	-0.275606	0.262278	0	)
(	-0.287649	0.201007	0	)
(	-0.294708	0.145049	0	)
(	-0.297142	0.0941624	0	)
(	-0.295303	0.0480227	0	)
(	-0.289446	0.00610079	0	)
(	-0.279375	-0.0319626	0	)
(	-0.265882	-0.065928	0	)
(	-0.249119	-0.0957803	0	)
(	-0.229486	-0.12145	0	)
(	-0.207427	-0.142786	0	)
(	-0.183495	-0.159594	0	)
(	-0.158413	-0.171621	0	)
(	-0.133088	-0.178685	0	)
(	-0.108619	-0.180674	0	)
(	-0.0862161	-0.177714	0	)
(	-0.0671102	-0.170375	0	)
(	-0.0522357	-0.159802	0	)
(	-0.0416525	-0.147546	0	)
(	-0.034784	-0.134854	0	)
(	-0.0308512	-0.122568	0	)
(	-0.0290812	-0.111151	0	)
(	-0.0288241	-0.1008	0	)
(	-0.0295766	-0.0915514	0	)
(	-0.0309697	-0.0833565	0	)
(	-0.0327435	-0.0761269	0	)
(	-0.03472	-0.0697618	0	)
(	-0.0367804	-0.0641618	0	)
(	-0.0388473	-0.0592349	0	)
(	-0.040878	-0.0548957	0	)
(	-0.0428398	-0.0510828	0	)
(	-0.0447149	-0.0477417	0	)
(	-0.0464937	-0.0448241	0	)
(	-0.0481748	-0.0422908	0	)
(	-0.0497616	-0.0401111	0	)
(	-0.0512599	-0.0382627	0	)
(	-0.0526778	-0.0367304	0	)
(	-0.0540269	-0.0355048	0	)
(	-0.0553204	-0.0345885	0	)
(	-0.0565741	-0.0339952	0	)
(	-0.0578051	-0.0337487	0	)
(	-0.0590338	-0.0338855	0	)
(	-0.0602862	-0.0344584	0	)
(	-0.0615916	-0.0355445	0	)
(	-0.0629804	-0.0372504	0	)
(	-0.0644802	-0.039717	0	)
(	-0.0661105	-0.0431281	0	)
(	-0.0678749	-0.0477159	0	)
(	-0.0697526	-0.0537622	0	)
(	-0.0716933	-0.0615872	0	)
(	-0.0736143	-0.0715176	0	)
(	-0.0753969	-0.0838329	0	)
(	-0.0768762	-0.0987038	0	)
(	-0.0778218	-0.116142	0	)
(	-0.0779304	-0.135966	0	)
(	-0.0767984	-0.157722	0	)
(	-0.0740914	-0.180453	0	)
(	-0.0693624	-0.201643	0	)
(	-0.0616345	-0.216713	0	)
(	-0.0502645	-0.223273	0	)
(	-0.0355855	-0.222284	0	)
(	-0.0186286	-0.215622	0	)
(	-0.000490669	-0.204728	0	)
(	0.0178834	-0.190549	0	)
(	0.0356245	-0.173841	0	)
(	0.0524113	-0.154783	0	)
(	0.0679385	-0.133439	0	)
(	0.0819006	-0.109866	0	)
(	0.0940205	-0.084095	0	)
(	0.104034	-0.0561382	0	)
(	0.111673	-0.0259917	0	)
(	0.116757	0.006357	0	)
(	0.118944	0.040861	0	)
(	0.118147	0.0777108	0	)
(	0.114174	0.11712	0	)
(	0.106844	0.159263	0	)
(	0.0959846	0.204285	0	)
(	0.0814298	0.252308	0	)
(	0.0630585	0.303456	0	)
(	0.0411104	0.357917	0	)
(	0.0164409	0.412823	0	)
(	-0.0276337	0.868382	0	)
(	-0.0726396	0.782825	0	)
(	-0.113496	0.688502	0	)
(	-0.149433	0.596341	0	)
(	-0.179552	0.508155	0	)
(	-0.203897	0.424853	0	)
(	-0.222593	0.347015	0	)
(	-0.235901	0.274932	0	)
(	-0.244156	0.208654	0	)
(	-0.24771	0.148039	0	)
(	-0.246881	0.0928074	0	)
(	-0.24201	0.0425582	0	)
(	-0.232948	-0.00336664	0	)
(	-0.220306	-0.0450989	0	)
(	-0.204191	-0.0824083	0	)
(	-0.184885	-0.115272	0	)
(	-0.162715	-0.143574	0	)
(	-0.138091	-0.167039	0	)
(	-0.11156	-0.185331	0	)
(	-0.0839419	-0.197953	0	)
(	-0.0562844	-0.204553	0	)
(	-0.0300682	-0.204822	0	)
(	-0.00675694	-0.198703	0	)
(	0.0120501	-0.186804	0	)
(	0.0248214	-0.17118	0	)
(	0.0319527	-0.154449	0	)
(	0.034674	-0.138209	0	)
(	0.034255	-0.123342	0	)
(	0.0317915	-0.110164	0	)
(	0.0280993	-0.0986857	0	)
(	0.0237481	-0.0887682	0	)
(	0.0191142	-0.0802202	0	)
(	0.0144354	-0.0728471	0	)
(	0.00985467	-0.0664724	0	)
(	0.00545216	-0.0609443	0	)
(	0.00126879	-0.0561332	0	)
(	-0.0026918	-0.0519239	0	)
(	-0.00639566	-0.0482737	0	)
(	-0.00986963	-0.0450978	0	)
(	-0.0131268	-0.0423383	0	)
(	-0.0161852	-0.0399522	0	)
(	-0.0190658	-0.0379068	0	)
(	-0.0217905	-0.0361783	0	)
(	-0.0243819	-0.03475	0	)
(	-0.0268692	-0.0336079	0	)
(	-0.0292749	-0.0327527	0	)
(	-0.0316324	-0.0321972	0	)
(	-0.0339755	-0.0319613	0	)
(	-0.0363434	-0.0320764	0	)
(	-0.0387836	-0.0325875	0	)
(	-0.0413477	-0.0335671	0	)
(	-0.044091	-0.0351206	0	)
(	-0.0470665	-0.0373906	0	)
(	-0.0503206	-0.0405728	0	)
(	-0.0538847	-0.0449223	0	)
(	-0.0577688	-0.0507542	0	)
(	-0.0619574	-0.0584252	0	)
(	-0.0664089	-0.0682961	0	)
(	-0.0710468	-0.0806829	0	)
(	-0.075735	-0.0958131	0	)
(	-0.0802362	-0.113788	0	)
(	-0.0841689	-0.134541	0	)
(	-0.0869597	-0.157719	0	)
(	-0.0879452	-0.182376	0	)
(	-0.0862408	-0.206214	0	)
(	-0.0808485	-0.224887	0	)
(	-0.0713228	-0.235356	0	)
(	-0.0580578	-0.237492	0	)
(	-0.0421081	-0.232782	0	)
(	-0.0246429	-0.222838	0	)
(	-0.00661374	-0.208774	0	)
(	0.0113655	-0.191206	0	)
(	0.0283206	-0.171037	0	)
(	0.0440709	-0.148322	0	)
(	0.0583485	-0.123113	0	)
(	0.0709243	-0.0954525	0	)
(	0.0815704	-0.0653634	0	)
(	0.090048	-0.0328473	0	)
(	0.0961735	0.00212198	0	)
(	0.0996457	0.0394504	0	)
(	0.100308	0.0792826	0	)
(	0.0980039	0.121844	0	)
(	0.0925526	0.167305	0	)
(	0.0837867	0.215795	0	)
(	0.0715482	0.267408	0	)
(	0.0557167	0.322236	0	)
(	0.036593	0.380484	0	)
(	0.0146243	0.439274	0	)
(	-0.0242893	0.914595	0	)
(	-0.0643009	0.823876	0	)
(	-0.0995977	0.72426	0	)
(	-0.130536	0.626667	0	)
(	-0.155926	0.532917	0	)
(	-0.175828	0.44407	0	)
(	-0.190339	0.360867	0	)
(	-0.199718	0.283709	0	)
(	-0.204298	0.212692	0	)
(	-0.204424	0.147664	0	)
(	-0.200398	0.0882827	0	)
(	-0.19253	0.034044	0	)
(	-0.180506	-0.0157028	0	)
(	-0.165178	-0.0609132	0	)
(	-0.146453	-0.10148	0	)
(	-0.124606	-0.137336	0	)
(	-0.0998404	-0.168321	0	)
(	-0.0724968	-0.193974	0	)
(	-0.0430587	-0.213825	0	)
(	-0.0125305	-0.227049	0	)
(	0.0181146	-0.23274	0	)
(	0.0463448	-0.230258	0	)
(	0.070782	-0.21975	0	)
(	0.0892748	-0.201958	0	)
(	0.0998086	-0.179616	0	)
(	0.102882	-0.157343	0	)
(	0.100814	-0.137103	0	)
(	0.0955263	-0.119657	0	)
(	0.0885038	-0.104983	0	)
(	0.0807166	-0.092756	0	)
(	0.0727598	-0.0825725	0	)
(	0.0649726	-0.0740531	0	)
(	0.0575332	-0.0668775	0	)
(	0.0505225	-0.0607882	0	)
(	0.0439649	-0.0555834	0	)
(	0.0378542	-0.0511059	0	)
(	0.0321685	-0.0472376	0	)
(	0.0268807	-0.0438971	0	)
(	0.0219479	-0.0410044	0	)
(	0.0173348	-0.0385008	0	)
(	0.0130054	-0.0363422	0	)
(	0.0089229	-0.034495	0	)
(	0.00504991	-0.0329338	0	)
(	0.0013499	-0.0316396	0	)
(	-0.00223493	-0.0305972	0	)
(	-0.00570146	-0.0298172	0	)
(	-0.00912087	-0.0292957	0	)
(	-0.0125437	-0.0290461	0	)
(	-0.0160255	-0.0290943	0	)
(	-0.0196345	-0.0294749	0	)
(	-0.0234269	-0.0302573	0	)
(	-0.0274764	-0.031548	0	)
(	-0.0318493	-0.0334925	0	)
(	-0.0366094	-0.0363	0	)
(	-0.0418118	-0.0402458	0	)
(	-0.0475027	-0.0456681	0	)
(	-0.0537188	-0.0529424	0	)
(	-0.0604875	-0.0624493	0	)
(	-0.0678087	-0.0745459	0	)
(	-0.0756068	-0.0895505	0	)
(	-0.0836537	-0.107721	0	)
(	-0.0914798	-0.12921	0	)
(	-0.0982599	-0.153915	0	)
(	-0.10287	-0.181056	0	)
(	-0.103683	-0.208512	0	)
(	-0.099658	-0.231375	0	)
(	-0.0910082	-0.246066	0	)
(	-0.0784357	-0.251678	0	)
(	-0.0630251	-0.249247	0	)
(	-0.0459717	-0.240449	0	)
(	-0.0282634	-0.226705	0	)
(	-0.0105464	-0.208916	0	)
(	0.00669919	-0.187607	0	)
(	0.0227435	-0.163524	0	)
(	0.0373613	-0.136765	0	)
(	0.0503717	-0.107351	0	)
(	0.0615974	-0.0753015	0	)
(	0.0708394	-0.0406129	0	)
(	0.0778783	-0.00326387	0	)
(	0.0825845	0.0366971	0	)
(	0.08461	0.0793285	0	)
(	0.0838561	0.124855	0	)
(	0.0801302	0.173446	0	)
(	0.0732617	0.225216	0	)
(	0.0630896	0.280231	0	)
(	0.0494802	0.338547	0	)
(	0.0327725	0.400381	0	)
(	0.0131174	0.462899	0	)
(	-0.0213944	0.955517	0	)
(	-0.057002	0.859722	0	)
(	-0.0873656	0.755115	0	)
(	-0.113826	0.652369	0	)
(	-0.134907	0.553298	0	)
(	-0.150701	0.459128	0	)
(	-0.161289	0.370778	0	)
(	-0.16694	0.28877	0	)
(	-0.168006	0.213249	0	)
(	-0.164844	0.144036	0	)
(	-0.157761	0.0807115	0	)
(	-0.147016	0.0226364	0	)
(	-0.132266	-0.0307918	0	)
(	-0.114418	-0.0793422	0	)
(	-0.0932863	-0.123072	0	)
(	-0.0690693	-0.16192	0	)
(	-0.0417446	-0.195729	0	)
(	-0.0116308	-0.223902	0	)
(	0.0209812	-0.245554	0	)
(	0.0542426	-0.258955	0	)
(	0.0873184	-0.263231	0	)
(	0.118274	-0.257585	0	)
(	0.145106	-0.241801	0	)
(	0.164559	-0.216205	0	)
(	0.172806	-0.184562	0	)
(	0.170787	-0.15538	0	)
(	0.162927	-0.130763	0	)
(	0.152058	-0.110984	0	)
(	0.14011	-0.0953287	0	)
(	0.128128	-0.0829308	0	)
(	0.116641	-0.0730202	0	)
(	0.105876	-0.0649927	0	)
(	0.0958986	-0.058397	0	)
(	0.0866958	-0.0529038	0	)
(	0.0782173	-0.0482739	0	)
(	0.0703996	-0.0443334	0	)
(	0.0631768	-0.040957	0	)
(	0.0564827	-0.0380558	0	)
(	0.0502519	-0.0355547	0	)
(	0.0444271	-0.0333968	0	)
(	0.0389551	-0.0315391	0	)
(	0.033785	-0.0299485	0	)
(	0.0288678	-0.0285992	0	)
(	0.0241561	-0.0274719	0	)
(	0.0195984	-0.0265568	0	)
(	0.0151489	-0.0258497	0	)
(	0.0107437	-0.0253414	0	)
(	0.00632252	-0.0250376	0	)
(	0.00181805	-0.0249608	0	)
(	-0.00287636	-0.0251585	0	)
(	-0.00774943	-0.0256969	0	)
(	-0.0129205	-0.0266668	0	)
(	-0.0184545	-0.0282164	0	)
(	-0.0244315	-0.0305627	0	)
(	-0.030942	-0.0339827	0	)
(	-0.0380911	-0.0388144	0	)
(	-0.0459944	-0.0454287	0	)
(	-0.0547818	-0.0542133	0	)
(	-0.0645681	-0.0655728	0	)
(	-0.0753806	-0.0799572	0	)
(	-0.0870415	-0.0978643	0	)
(	-0.0990177	-0.119815	0	)
(	-0.110164	-0.146203	0	)
(	-0.118725	-0.176678	0	)
(	-0.121642	-0.209402	0	)
(	-0.117709	-0.237369	0	)
(	-0.108604	-0.256436	0	)
(	-0.0957683	-0.265504	0	)
(	-0.0803631	-0.265363	0	)
(	-0.0635074	-0.257739	0	)
(	-0.0461057	-0.244321	0	)
(	-0.0287563	-0.226306	0	)
(	-0.0118418	-0.204434	0	)
(	0.00433152	-0.179071	0	)
(	0.0192169	-0.150789	0	)
(	0.0325718	-0.119725	0	)
(	0.0442712	-0.0858662	0	)
(	0.0541627	-0.0491837	0	)
(	0.0620357	-0.00965072	0	)
(	0.0677753	0.0327309	0	)
(	0.0710214	0.0779829	0	)
(	0.071659	0.126308	0	)
(	0.0694812	0.17787	0	)
(	0.0643016	0.232774	0	)
(	0.0559452	0.291056	0	)
(	0.0442513	0.352731	0	)
(	0.0295882	0.418019	0	)
(	0.011884	0.484158	0	)
(	-0.0188919	0.991832	0	)
(	-0.0506552	0.890984	0	)
(	-0.0766499	0.781607	0	)
(	-0.0991181	0.673902	0	)
(	-0.116296	0.569673	0	)
(	-0.128322	0.47033	0	)
(	-0.135264	0.376991	0	)
(	-0.137416	0.290314	0	)
(	-0.135165	0.210494	0	)
(	-0.128899	0.137319	0	)
(	-0.118966	0.0702762	0	)
(	-0.105511	0.00855417	0	)
(	-0.0883889	-0.0483407	0	)
(	-0.0683876	-0.10006	0	)
(	-0.0452153	-0.146872	0	)
(	-0.0189544	-0.188868	0	)
(	0.0107207	-0.22604	0	)
(	0.0428391	-0.25658	0	)
(	0.0772205	-0.279562	0	)
(	0.113013	-0.29345	0	)
(	0.149235	-0.296734	0	)
(	0.184125	-0.288059	0	)
(	0.215466	-0.266497	0	)
(	0.238132	-0.230743	0	)
(	0.24401	-0.185131	0	)
(	0.234972	-0.147218	0	)
(	0.219784	-0.118097	0	)
(	0.202442	-0.0966756	0	)
(	0.185254	-0.0809378	0	)
(	0.169129	-0.0692043	0	)
(	0.154355	-0.0602539	0	)
(	0.140933	-0.0532535	0	)
(	0.128758	-0.0476457	0	)
(	0.117689	-0.0430583	0	)
(	0.10759	-0.03924	0	)
(	0.0983349	-0.0360188	0	)
(	0.0898123	-0.0332752	0	)
(	0.0819245	-0.030925	0	)
(	0.0745845	-0.0289028	0	)
(	0.0677171	-0.0271589	0	)
(	0.0612549	-0.0256555	0	)
(	0.0551366	-0.0243632	0	)
(	0.0493049	-0.0232586	0	)
(	0.0437054	-0.0223236	0	)
(	0.0382836	-0.0215462	0	)
(	0.0329838	-0.0209173	0	)
(	0.0277464	-0.0204257	0	)
(	0.0225127	-0.0200705	0	)
(	0.017221	-0.019869	0	)
(	0.0117912	-0.0198685	0	)