31.9 	9.1 	1.7 	290.21
32 	9.1 	1.7 	290.21
32.1 	9.1 	1.7 	290.213
32.2 	9.1 	1.7 	290.22
32.3 	9.1 	1.7 	290.242
32.4 	9.1 	1.7 	290.283
32.5 	9.1 	1.7 	290.283
32.6 	9.1 	1.7 	290.298
32.7 	9.1 	1.7 	290.308
32.8 	9.1 	1.7 	290.315
32.9 	9.1 	1.7 	290.324
33 	9.1 	1.7 	290.324
33.1 	9.1 	1.7 	290.325
33.2 	9.1 	1.7 	290.324
33.3 	9.1 	1.7 	290.322
33.4 	9.1 	1.7 	290.313
33.5 	9.1 	1.7 	290.313
33.6 	9.1 	1.7 	290.307
33.7 	9.1 	1.7 	290.301
33.8 	9.1 	1.7 	290.294
33.9 	9.1 	1.7 	290.279
34 	9.1 	1.7 	290.279
34.1 	9.1 	1.7 	290.272
34.2 	9.1 	1.7 	290.265
34.3 	9.1 	1.7 	290.259
34.4 	9.1 	1.7 	290.249
34.5 	9.1 	1.7 	290.249
34.6 	9.1 	1.7 	290.244
34.7 	9.1 	1.7 	290.24
34.8 	9.1 	1.7 	290.235
34.9 	9.1 	1.7 	290.223
35 	9.1 	1.7 	290.223
35.1 	9.1 	1.7 	290.216
35.2 	9.1 	1.7 	290.208
35.3 	9.1 	1.7 	290.199
31.9 	9.2 	1.7 	290.21
32 	9.2 	1.7 	290.21
32.1 	9.2 	1.7 	290.213
32.2 	9.2 	1.7 	290.22
32.3 	9.2 	1.7 	290.242
32.4 	9.2 	1.7 	290.283
32.5 	9.2 	1.7 	290.283
32.6 	9.2 	1.7 	290.298
32.7 	9.2 	1.7 	290.308
32.8 	9.2 	1.7 	290.315
32.9 	9.2 	1.7 	290.324
33 	9.2 	1.7 	290.324
33.1 	9.2 	1.7 	290.325
33.2 	9.2 	1.7 	290.324
33.3 	9.2 	1.7 	290.322
33.4 	9.2 	1.7 	290.313
33.5 	9.2 	1.7 	290.313
33.6 	9.2 	1.7 	290.307
33.7 	9.2 	1.7 	290.301
33.8 	9.2 	1.7 	290.294
33.9 	9.2 	1.7 	290.279
34 	9.2 	1.7 	290.279
34.1 	9.2 	1.7 	290.272
34.2 	9.2 	1.7 	290.265
34.3 	9.2 	1.7 	290.259
34.4 	9.2 	1.7 	290.249
34.5 	9.2 	1.7 	290.249
34.6 	9.2 	1.7 	290.244
34.7 	9.2 	1.7 	290.24
34.8 	9.2 	1.7 	290.235
34.9 	9.2 	1.7 	290.223
35 	9.2 	1.7 	290.223
35.1 	9.2 	1.7 	290.216
35.2 	9.2 	1.7 	290.208
35.3 	9.2 	1.7 	290.199
31.9 	9.3 	1.7 	290.203
32 	9.3 	1.7 	290.203
32.1 	9.3 	1.7 	290.199
32.2 	9.3 	1.7 	290.204
32.3 	9.3 	1.7 	290.225
32.4 	9.3 	1.7 	290.279
32.5 	9.3 	1.7 	290.279
32.6 	9.3 	1.7 	290.301
32.7 	9.3 	1.7 	290.313
32.8 	9.3 	1.7 	290.322
32.9 	9.3 	1.7 	290.331
33 	9.3 	1.7 	290.331
33.1 	9.3 	1.7 	290.331
33.2 	9.3 	1.7 	290.33
33.3 	9.3 	1.7 	290.328
33.4 	9.3 	1.7 	290.32
33.5 	9.3 	1.7 	290.32
33.6 	9.3 	1.7 	290.314
33.7 	9.3 	1.7 	290.308
33.8 	9.3 	1.7 	290.301
33.9 	9.3 	1.7 	290.287
34 	9.3 	1.7 	290.287
34.1 	9.3 	1.7 	290.28
34.2 	9.3 	1.7 	290.274
34.3 	9.3 	1.7 	290.267
34.4 	9.3 	1.7 	290.256
34.5 	9.3 	1.7 	290.256
34.6 	9.3 	1.7 	290.251
34.7 	9.3 	1.7 	290.244
34.8 	9.3 	1.7 	290.233
34.9 	9.3 	1.7 	290.214
35 	9.3 	1.7 	290.214
35.1 	9.3 	1.7 	290.208
35.2 	9.3 	1.7 	290.204
35.3 	9.3 	1.7 	290.199
31.9 	9.4 	1.7 	290.19
32 	9.4 	1.7 	290.19
32.1 	9.4 	1.7 	290.178
32.2 	9.4 	1.7 	290.183
32.3 	9.4 	1.7 	290.208
32.4 	9.4 	1.7 	290.277
32.5 	9.4 	1.7 	290.277
32.6 	9.4 	1.7 	290.305
32.7 	9.4 	1.7 	290.317
32.8 	9.4 	1.7 	290.324
32.9 	9.4 	1.7 	290.327
33 	9.4 	1.7 	290.327
33.1 	9.4 	1.7 	290.325
33.2 	9.4 	1.7 	290.322
33.3 	9.4 	1.7 	290.318
33.4 	9.4 	1.7 	290.308
33.5 	9.4 	1.7 	290.308
33.6 	9.4 	1.7 	290.302
33.7 	9.4 	1.7 	290.296
33.8 	9.4 	1.7 	290.29
33.9 	9.4 	1.7 	290.277
34 	9.4 	1.7 	290.277
34.1 	9.4 	1.7 	290.27
34.2 	9.4 	1.7 	290.264
34.3 	9.4 	1.7 	290.258
34.4 	9.4 	1.7 	290.248
34.5 	9.4 	1.7 	290.248
34.6 	9.4 	1.7 	290.24
34.7 	9.4 	1.7 	290.212
34.8 	9.4 	1.7 	290.181
34.9 	9.4 	1.7 	290.163
35 	9.4 	1.7 	290.163
35.1 	9.4 	1.7 	290.166
35.2 	9.4 	1.7 	290.174
35.3 	9.4 	1.7 	290.181
31.9 	9.5 	1.7 	290.173
32 	9.5 	1.7 	290.173
32.1 	9.5 	1.7 	290.153
32.2 	9.5 	1.7 	290.158
32.3 	9.5 	1.7 	290.19
32.4 	9.5 	1.7 	290.276
32.5 	9.5 	1.7 	290.276
32.6 	9.5 	1.7 	290.311
34.6 	9.5 	1.7 	290.118
34.7 	9.5 	1.7 	290.118
34.8 	9.5 	1.7 	290.112
34.9 	9.5 	1.7 	290.113
35 	9.5 	1.7 	290.113
35.1 	9.5 	1.7 	290.124
35.2 	9.5 	1.7 	290.141
35.3 	9.5 	1.7 	290.159
31.9 	9.6 	1.7 	290.128
32 	9.6 	1.7 	290.128
32.1 	9.6 	1.7 	290.092
32.2 	9.6 	1.7 	290.101
32.3 	9.6 	1.7 	290.144
32.4 	9.6 	1.7 	290.254
32.5 	9.6 	1.7 	290.254
32.6 	9.6 	1.7 	290.299
34.6 	9.6 	1.7 	290.071
34.7 	9.6 	1.7 	290.071
34.8 	9.6 	1.7 	290.062
34.9 	9.6 	1.7 	290.049
35 	9.6 	1.7 	290.049
35.1 	9.6 	1.7 	290.058
35.2 	9.6 	1.7 	290.083
35.3 	9.6 	1.7 	290.116
31.9 	9.7 	1.7 	290.128
32 	9.7 	1.7 	290.128
32.1 	9.7 	1.7 	290.092
32.2 	9.7 	1.7 	290.101
32.3 	9.7 	1.7 	290.144
32.4 	9.7 	1.7 	290.254
32.5 	9.7 	1.7 	290.254
32.6 	9.7 	1.7 	290.299
34.6 	9.7 	1.7 	290.071
34.7 	9.7 	1.7 	290.071
34.8 	9.7 	1.7 	290.062
34.9 	9.7 	1.7 	290.049
35 	9.7 	1.7 	290.049
35.1 	9.7 	1.7 	290.058
35.2 	9.7 	1.7 	290.083
35.3 	9.7 	1.7 	290.116
31.9 	9.8 	1.7 	290.102
32 	9.8 	1.7 	290.102
32.1 	9.8 	1.7 	290.059
32.2 	9.8 	1.7 	290.067
32.3 	9.8 	1.7 	290.114
32.4 	9.8 	1.7 	290.231
32.5 	9.8 	1.7 	290.231
32.6 	9.8 	1.7 	290.28
34.6 	9.8 	1.7 	290.066
34.7 	9.8 	1.7 	290.066
34.8 	9.8 	1.7 	290.051
34.9 	9.8 	1.7 	290.026
35 	9.8 	1.7 	290.026
35.1 	9.8 	1.7 	290.029
35.2 	9.8 	1.7 	290.054
35.3 	9.8 	1.7 	290.094
31.9 	9.9 	1.7 	290.075
32 	9.9 	1.7 	290.075
32.1 	9.9 	1.7 	290.024
32.2 	9.9 	1.7 	290.03
32.3 	9.9 	1.7 	290.077
32.4 	9.9 	1.7 	290.198
32.5 	9.9 	1.7 	290.198
32.6 	9.9 	1.7 	290.252
34.6 	9.9 	1.7 	290.06
34.7 	9.9 	1.7 	290.06
34.8 	9.9 	1.7 	290.041
34.9 	9.9 	1.7 	290.005
35 	9.9 	1.7 	290.005
35.1 	9.9 	1.7 	290.002
35.2 	9.9 	1.7 	290.024
35.3 	9.9 	1.7 	290.071
31.9 	10 	1.7 	290.048
32 	10 	1.7 	290.048
32.1 	10 	1.7 	289.987
32.2 	10 	1.7 	289.989
32.3 	10 	1.7 	290.032
32.4 	10 	1.7 	290.154
32.5 	10 	1.7 	290.154
32.6 	10 	1.7 	290.213
34.6 	10 	1.7 	290.05
34.7 	10 	1.7 	290.05
34.8 	10 	1.7 	290.027
34.9 	10 	1.7 	289.983
35 	10 	1.7 	289.983
35.1 	10 	1.7 	289.976
35.2 	10 	1.7 	289.995
35.3 	10 	1.7 	290.045
31.9 	10.1 	1.7 	289.993
32 	10.1 	1.7 	289.993
32.1 	10.1 	1.7 	289.912
32.2 	10.1 	1.7 	289.894
32.3 	10.1 	1.7 	289.92
32.4 	10.1 	1.7 	290.021
32.5 	10.1 	1.7 	290.021
32.6 	10.1 	1.7 	290.073
34.6 	10.1 	1.7 	290.007
34.7 	10.1 	1.7 	290.007
34.8 	10.1 	1.7 	289.98
34.9 	10.1 	1.7 	289.931
35 	10.1 	1.7 	289.931
35.1 	10.1 	1.7 	289.923
35.2 	10.1 	1.7 	289.94
35.3 	10.1 	1.7 	289.993
31.9 	10.2 	1.7 	289.993
32 	10.2 	1.7 	289.993
32.1 	10.2 	1.7 	289.912
32.2 	10.2 	1.7 	289.894
32.3 	10.2 	1.7 	289.92
32.4 	10.2 	1.7 	290.021
32.5 	10.2 	1.7 	290.021
32.6 	10.2 	1.7 	290.073
32.7 	10.2 	1.7 	289.967
32.8 	10.2 	1.7 	289.962
32.9 	10.2 	1.7 	289.953
33 	10.2 	1.7 	289.953
33.1 	10.2 	1.7 	289.951
33.2 	10.2 	1.7 	289.954
33.3 	10.2 	1.7 	289.961
33.4 	10.2 	1.7 	289.976
33.5 	10.2 	1.7 	289.976
33.6 	10.2 	1.7 	289.981
33.7 	10.2 	1.7 	289.983
33.8 	10.2 	1.7 	289.98
33.9 	10.2 	1.7 	289.941
34 	10.2 	1.7 	289.941
34.1 	10.2 	1.7 	289.933
34.2 	10.2 	1.7 	289.939
34.3 	10.2 	1.7 	289.948
34.4 	10.2 	1.7 	289.963
34.5 	10.2 	1.7 	289.963
34.6 	10.2 	1.7 	290.007
34.7 	10.2 	1.7 	290.007
34.8 	10.2 	1.7 	289.98
34.9 	10.2 	1.7 	289.931
35 	10.2 	1.7 	289.931
35.1 	10.2 	1.7 	289.923
35.2 	10.2 	1.7 	289.94
35.3 	10.2 	1.7 	289.993
31.9 	10.3 	1.7 	289.964
32 	10.3 	1.7 	289.964
32.1 	10.3 	1.7 	289.874
32.2 	10.3 	1.7 	289.844
32.3 	10.3 	1.7 	289.856
32.4 	10.3 	1.7 	289.927
32.5 	10.3 	1.7 	289.927
32.6 	10.3 	1.7 	289.969
32.7 	10.3 	1.7 	289.967
32.8 	10.3 	1.7 	289.962
32.9 	10.3 	1.7 	289.953
33 	10.3 	1.7 	289.953
33.1 	10.3 	1.7 	289.951
33.2 	10.3 	1.7 	289.954
33.3 	10.3 	1.7 	289.961
33.4 	10.3 	1.7 	289.976
33.5 	10.3 	1.7 	289.976
33.6 	10.3 	1.7 	289.981
33.7 	10.3 	1.7 	289.983
33.8 	10.3 	1.7 	289.98
33.9 	10.3 	1.7 	289.941
34 	10.3 	1.7 	289.941
34.1 	10.3 	1.7 	289.933
34.2 	10.3 	1.7 	289.939
34.3 	10.3 	1.7 	289.948
34.4 	10.3 	1.7 	289.963
34.5 	10.3 	1.7 	289.963
34.6 	10.3 	1.7 	289.967
34.7 	10.3 	1.7 	289.967
34.8 	10.3 	1.7 	289.944
34.9 	10.3 	1.7 	289.9
35 	10.3 	1.7 	289.9
35.1 	10.3 	1.7 	289.895
35.2 	10.3 	1.7 	289.915
35.3 	10.3 	1.7 	289.97
31.9 	10.4 	1.7 	289.932
32 	10.4 	1.7 	289.932
32.1 	10.4 	1.7 	289.833
32.2 	10.4 	1.7 	289.794
32.3 	10.4 	1.7 	289.797
32.4 	10.4 	1.7 	289.845
32.5 	10.4 	1.7 	289.845
32.6 	10.4 	1.7 	289.867
32.7 	10.4 	1.7 	289.876
32.8 	10.4 	1.7 	289.883
32.9 	10.4 	1.7 	289.904
33 	10.4 	1.7 	289.904
33.1 	10.4 	1.7 	289.926
33.2 	10.4 	1.7 	289.956
33.3 	10.4 	1.7 	289.991
33.4 	10.4 	1.7 	290.039
33.5 	10.4 	1.7 	290.039
33.6 	10.4 	1.7 	290.048
33.7 	10.4 	1.7 	290.046
33.8 	10.4 	1.7 	290.028
33.9 	10.4 	1.7 	289.942
34 	10.4 	1.7 	289.942
34.1 	10.4 	1.7 	289.926
34.2 	10.4 	1.7 	289.924
34.3 	10.4 	1.7 	289.927
34.4 	10.4 	1.7 	289.931
34.5 	10.4 	1.7 	289.931
34.6 	10.4 	1.7 	289.928
34.7 	10.4 	1.7 	289.921
34.8 	10.4 	1.7 	289.902
34.9 	10.4 	1.7 	289.868
35 	10.4 	1.7 	289.868
35.1 	10.4 	1.7 	289.867
35.2 	10.4 	1.7 	289.89
35.3 	10.4 	1.7 	289.949
31.9 	10.5 	1.7 	289.899
32 	10.5 	1.7 	289.899
32.1 	10.5 	1.7 	289.791
32.2 	10.5 	1.7 	289.746
32.3 	10.5 	1.7 	289.743
32.4 	10.5 	1.7 	289.778
32.5 	10.5 	1.7 	289.778
32.6 	10.5 	1.7 	289.795
32.7 	10.5 	1.7 	289.808
32.8 	10.5 	1.7 	289.823
32.9 	10.5 	1.7 	289.889
33 	10.5 	1.7 	289.889
33.1 	10.5 	1.7 	289.954
33.2 	10.5 	1.7 	290.037
33.3 	10.5 	1.7 	290.115
33.4 	10.5 	1.7 	290.184
33.5 	10.5 	1.7 	290.184
33.6 	10.5 	1.7 	290.177
33.7 	10.5 	1.7 	290.146
33.8 	10.5 	1.7 	290.092
33.9 	10.5 	1.7 	289.943
34 	10.5 	1.7 	289.943
34.1 	10.5 	1.7 	289.91
34.2 	10.5 	1.7 	289.899
34.3 	10.5 	1.7 	289.896
34.4 	10.5 	1.7 	289.89
34.5 	10.5 	1.7 	289.89
34.6 	10.5 	1.7 	289.884
34.7 	10.5 	1.7 	289.874
34.8 	10.5 	1.7 	289.859
34.9 	10.5 	1.7 	289.836
35 	10.5 	1.7 	289.836
35.1 	10.5 	1.7 	289.84
35.2 	10.5 	1.7 	289.866
35.3 	10.5 	1.7 	289.928
31.9 	10.6 	1.7 	289.828
32 	10.6 	1.7 	289.828
32.1 	10.6 	1.7 	289.702
32.2 	10.6 	1.7 	289.657
32.3 	10.6 	1.7 	289.652
32.4 	10.6 	1.7 	289.678
32.5 	10.6 	1.7 	289.678
32.6 	10.6 	1.7 	289.694
32.7 	10.6 	1.7 	289.715
32.8 	10.6 	1.7 	289.759
32.9 	10.6 	1.7 	290.041
33 	10.6 	1.7 	290.041
33.1 	10.6 	1.7 	290.314
33.2 	10.6 	1.7 	290.61
33.3 	10.6 	1.7 	290.833
33.4 	10.6 	1.7 	290.838
33.5 	10.6 	1.7 	290.838
33.6 	10.6 	1.7 	290.674
33.7 	10.6 	1.7 	290.478
33.8 	10.6 	1.7 	290.27
33.9 	10.6 	1.7 	289.95
34 	10.6 	1.7 	289.95
34.1 	10.6 	1.7 	289.879
34.2 	10.6 	1.7 	289.844
34.3 	10.6 	1.7 	289.828
34.4 	10.6 	1.7 	289.812
34.5 	10.6 	1.7 	289.812
34.6 	10.6 	1.7 	289.805
34.7 	10.6 	1.7 	289.798
34.8 	10.6 	1.7 	289.79
34.9 	10.6 	1.7 	289.779
35 	10.6 	1.7 	289.779
35.1 	10.6 	1.7 	289.787
35.2 	10.6 	1.7 	289.818
35.3 	10.6 	1.7 	289.887
31.9 	10.7 	1.7 	289.795
32 	10.7 	1.7 	289.795
32.1 	10.7 	1.7 	289.661
32.2 	10.7 	1.7 	289.617
32.3 	10.7 	1.7 	289.614
32.4 	10.7 	1.7 	289.64
32.5 	10.7 	1.7 	289.64
32.6 	10.7 	1.7 	289.657
32.7 	10.7 	1.7 	289.686
32.8 	10.7 	1.7 	289.759
32.9 	10.7 	1.7 	290.25
33 	10.7 	1.7 	290.25
33.1 	10.7 	1.7 	290.732
33.2 	10.7 	1.7 	291.229
33.3 	10.7 	1.7 	291.575
33.4 	10.7 	1.7 	291.467
33.5 	10.7 	1.7 	291.467
33.6 	10.7 	1.7 	291.115
33.7 	10.7 	1.7 	290.749
33.8 	10.7 	1.7 	290.403
33.9 	10.7 	1.7 	289.964
34 	10.7 	1.7 	289.964
34.1 	10.7 	1.7 	289.867
34.2 	10.7 	1.7 	289.819
34.3 	10.7 	1.7 	289.797
34.4 	10.7 	1.7 	289.78
34.5 	10.7 	1.7 	289.78
34.6 	10.7 	1.7 	289.774
34.7 	10.7 	1.7 	289.768
34.8 	10.7 	1.7 	289.761
34.9 	10.7 	1.7 	289.753
35 	10.7 	1.7 	289.753
35.1 	10.7 	1.7 	289.762
35.2 	10.7 	1.7 	289.794
35.3 	10.7 	1.7 	289.867
31.9 	10.8 	1.7 	289.795
32 	10.8 	1.7 	289.795
32.1 	10.8 	1.7 	289.661
32.2 	10.8 	1.7 	289.617
32.3 	10.8 	1.7 	289.614
32.4 	10.8 	1.7 	289.64
32.5 	10.8 	1.7 	289.64
32.6 	10.8 	1.7 	289.657
32.7 	10.8 	1.7 	289.686
32.8 	10.8 	1.7 	289.759
32.9 	10.8 	1.7 	290.25
33 	10.8 	1.7 	290.25
33.1 	10.8 	1.7 	290.732
33.2 	10.8 	1.7 	291.229
33.3 	10.8 	1.7 	291.575
33.4 	10.8 	1.7 	291.467
33.5 	10.8 	1.7 	291.467
33.6 	10.8 	1.7 	291.115
33.7 	10.8 	1.7 	290.749
33.8 	10.8 	1.7 	290.403
33.9 	10.8 	1.7 	289.964
34 	10.8 	1.7 	289.964
34.1 	10.8 	1.7 	289.867
34.2 	10.8 	1.7 	289.819
34.3 	10.8 	1.7 	289.797
34.4 	10.8 	1.7 	289.78
34.5 	10.8 	1.7 	289.78
34.6 	10.8 	1.7 	289.774
34.7 	10.8 	1.7 	289.768
34.8 	10.8 	1.7 	289.761
34.9 	10.8 	1.7 	289.753
35 	10.8 	1.7 	289.753
35.1 	10.8 	1.7 	289.762
35.2 	10.8 	1.7 	289.794
35.3 	10.8 	1.7 	289.867
31.9 	10.9 	1.7 	289.768
32 	10.9 	1.7 	289.768
32.1 	10.9 	1.7 	289.624
32.2 	10.9 	1.7 	289.583
32.3 	10.9 	1.7 	289.58
32.4 	10.9 	1.7 	289.606
32.5 	10.9 	1.7 	289.606
32.6 	10.9 	1.7 	289.625
32.7 	10.9 	1.7 	289.666
32.8 	10.9 	1.7 	289.775
32.9 	10.9 	1.7 	290.565
33 	10.9 	1.7 	290.565
33.1 	10.9 	1.7 	291.371
33.2 	10.9 	1.7 	292.167
33.3 	10.9 	1.7 	292.689
33.4 	10.9 	1.7 	292.446
33.5 	10.9 	1.7 	292.446
33.6 	10.9 	1.7 	291.812
33.7 	10.9 	1.7 	291.163
33.8 	10.9 	1.7 	290.609
33.9 	10.9 	1.7 	289.99
34 	10.9 	1.7 	289.99
34.1 	10.9 	1.7 	289.86
34.2 	10.9 	1.7 	289.797
34.3 	10.9 	1.7 	289.769
34.4 	10.9 	1.7 	289.751
34.5 	10.9 	1.7 	289.751
34.6 	10.9 	1.7 	289.746
34.7 	10.9 	1.7 	289.741
34.8 	10.9 	1.7 	289.734
34.9 	10.9 	1.7 	289.728
35 	10.9 	1.7 	289.728
35.1 	10.9 	1.7 	289.738
35.2 	10.9 	1.7 	289.771
35.3 	10.9 	1.7 	289.847
31.9 	11 	1.7 	289.746
32 	11 	1.7 	289.746
32.1 	11 	1.7 	289.593
32.2 	11 	1.7 	289.553
32.3 	11 	1.7 	289.55
32.4 	11 	1.7 	289.576
32.5 	11 	1.7 	289.576
32.6 	11 	1.7 	289.598
32.7 	11 	1.7 	289.651
32.8 	11 	1.7 	289.802
32.9 	11 	1.7 	290.981
33 	11 	1.7 	290.981
33.1 	11 	1.7 	292.278
33.2 	11 	1.7 	293.474
33.3 	11 	1.7 	294.223
33.4 	11 	1.7 	293.929
33.5 	11 	1.7 	293.929
33.6 	11 	1.7 	292.968
33.7 	11 	1.7 	291.829
33.8 	11 	1.7 	290.94
33.9 	11 	1.7 	290.035
34 	11 	1.7 	290.035
34.1 	11 	1.7 	289.858
34.2 	11 	1.7 	289.777
34.3 	11 	1.7 	289.744
34.4 	11 	1.7 	289.726
34.5 	11 	1.7 	289.726
34.6 	11 	1.7 	289.721
34.7 	11 	1.7 	289.715
34.8 	11 	1.7 	289.709
34.9 	11 	1.7 	289.703
35 	11 	1.7 	289.703
35.1 	11 	1.7 	289.714
35.2 	11 	1.7 	289.749
35.3 	11 	1.7 	289.828
31.9 	11.1 	1.7 	289.713
32 	11.1 	1.7 	289.713
32.1 	11.1 	1.7 	289.549
32.2 	11.1 	1.7 	289.506
32.3 	11.1 	1.7 	289.501
32.4 	11.1 	1.7 	289.525
32.5 	11.1 	1.7 	289.525
32.6 	11.1 	1.7 	289.549
32.7 	11.1 	1.7 	289.617
32.8 	11.1 	1.7 	289.828
32.9 	11.1 	1.7 	291.912
33 	11.1 	1.7 	291.912
33.1 	11.1 	1.7 	294.962
33.2 	11.1 	1.7 	296.799
33.3 	11.1 	1.7 	297.622
33.4 	11.1 	1.7 	297.586
33.5 	11.1 	1.7 	297.586
33.6 	11.1 	1.7 	296.535
33.7 	11.1 	1.7 	294.154
33.8 	11.1 	1.7 	292.016
33.9 	11.1 	1.7 	290.153
34 	11.1 	1.7 	290.153
34.1 	11.1 	1.7 	289.86
34.2 	11.1 	1.7 	289.741
34.3 	11.1 	1.7 	289.7
34.4 	11.1 	1.7 	289.68
34.5 	11.1 	1.7 	289.68
34.6 	11.1 	1.7 	289.675
34.7 	11.1 	1.7 	289.669
34.8 	11.1 	1.7 	289.662
34.9 	11.1 	1.7 	289.657
35 	11.1 	1.7 	289.657
35.1 	11.1 	1.7 	289.669
35.2 	11.1 	1.7 	289.706
35.3 	11.1 	1.7 	289.791
31.9 	11.2 	1.7 	289.702
32 	11.2 	1.7 	289.702
32.1 	11.2 	1.7 	289.533
32.2 	11.2 	1.7 	289.489
32.3 	11.2 	1.7 	289.482
32.4 	11.2 	1.7 	289.503
32.5 	11.2 	1.7 	289.503
32.6 	11.2 	1.7 	289.526
32.7 	11.2 	1.7 	289.589
32.8 	11.2 	1.7 	289.792
32.9 	11.2 	1.7 	292.153
33 	11.2 	1.7 	292.153
33.1 	11.2 	1.7 	296.639
33.2 	11.2 	1.7 	298.141
33.3 	11.2 	1.7 	298.591
33.4 	11.2 	1.7 	298.566
33.5 	11.2 	1.7 	298.566
33.6 	11.2 	1.7 	297.86
33.7 	11.2 	1.7 	295.189
33.8 	11.2 	1.7 	292.401
33.9 	11.2 	1.7 	290.179
34 	11.2 	1.7 	290.179
34.1 	11.2 	1.7 	289.85
34.2 	11.2 	1.7 	289.721
34.3 	11.2 	1.7 	289.679
34.4 	11.2 	1.7 	289.66
34.5 	11.2 	1.7 	289.66
34.6 	11.2 	1.7 	289.654
34.7 	11.2 	1.7 	289.647
34.8 	11.2 	1.7 	289.64
34.9 	11.2 	1.7 	289.634
35 	11.2 	1.7 	289.634
35.1 	11.2 	1.7 	289.646
35.2 	11.2 	1.7 	289.685
35.3 	11.2 	1.7 	289.772
31.9 	11.3 	1.7 	289.702
32 	11.3 	1.7 	289.702
32.1 	11.3 	1.7 	289.533
32.2 	11.3 	1.7 	289.489
32.3 	11.3 	1.7 	289.482
32.4 	11.3 	1.7 	289.503
32.5 	11.3 	1.7 	289.503
32.6 	11.3 	1.7 	289.526
32.7 	11.3 	1.7 	289.589
32.8 	11.3 	1.7 	289.792
32.9 	11.3 	1.7 	292.153
33 	11.3 	1.7 	292.153
33.1 	11.3 	1.7 	296.639
33.2 	11.3 	1.7 	298.141
33.3 	11.3 	1.7 	298.591
33.4 	11.3 	1.7 	298.566
33.5 	11.3 	1.7 	298.566
33.6 	11.3 	1.7 	297.86
33.7 	11.3 	1.7 	295.189
33.8 	11.3 	1.7 	292.401
33.9 	11.3 	1.7 	290.179
34 	11.3 	1.7 	290.179
34.1 	11.3 	1.7 	289.85
34.2 	11.3 	1.7 	289.721
34.3 	11.3 	1.7 	289.679
34.4 	11.3 	1.7 	289.66
34.5 	11.3 	1.7 	289.66
34.6 	11.3 	1.7 	289.654
34.7 	11.3 	1.7 	289.647
34.8 	11.3 	1.7 	289.64
34.9 	11.3 	1.7 	289.634
35 	11.3 	1.7 	289.634
35.1 	11.3 	1.7 	289.646
35.2 	11.3 	1.7 	289.685
35.3 	11.3 	1.7 	289.772
31.9 	11.4 	1.7 	289.693
32 	11.4 	1.7 	289.693
32.1 	11.4 	1.7 	289.521
32.2 	11.4 	1.7 	289.475
32.3 	11.4 	1.7 	289.466
32.4 	11.4 	1.7 	289.483
32.5 	11.4 	1.7 	289.483
32.6 	11.4 	1.7 	289.503
32.7 	11.4 	1.7 	289.553
32.8 	11.4 	1.7 	289.712
32.9 	11.4 	1.7 	291.885
33 	11.4 	1.7 	291.885
33.1 	11.4 	1.7 	298.508
33.2 	11.4 	1.7 	298.981
33.3 	11.4 	1.7 	299.04
33.4 	11.4 	1.7 	299.035
33.5 	11.4 	1.7 	299.035
33.6 	11.4 	1.7 	298.82
33.7 	11.4 	1.7 	295.19
33.8 	11.4 	1.7 	292.286
33.9 	11.4 	1.7 	290.148
34 	11.4 	1.7 	290.148
34.1 	11.4 	1.7 	289.822
34.2 	11.4 	1.7 	289.698
34.3 	11.4 	1.7 	289.658
34.4 	11.4 	1.7 	289.64
34.5 	11.4 	1.7 	289.64
34.6 	11.4 	1.7 	289.634
34.7 	11.4 	1.7 	289.626
34.8 	11.4 	1.7 	289.619
34.9 	11.4 	1.7 	289.612
35 	11.4 	1.7 	289.612
35.1 	11.4 	1.7 	289.624
35.2 	11.4 	1.7 	289.662
35.3 	11.4 	1.7 	289.751
31.9 	11.5 	1.7 	289.686
32 	11.5 	1.7 	289.686
32.1 	11.5 	1.7 	289.511
32.2 	11.5 	1.7 	289.463
32.3 	11.5 	1.7 	289.453
32.4 	11.5 	1.7 	289.467
32.5 	11.5 	1.7 	289.467
32.6 	11.5 	1.7 	289.482
32.7 	11.5 	1.7 	289.517
32.8 	11.5 	1.7 	289.611
32.9 	11.5 	1.7 	290.424
33 	11.5 	1.7 	290.424
33.6 	11.5 	1.7 	292.954
33.7 	11.5 	1.7 	292.954
33.8 	11.5 	1.7 	291.695
33.9 	11.5 	1.7 	290.066
34 	11.5 	1.7 	290.066
34.1 	11.5 	1.7 	289.781
34.2 	11.5 	1.7 	289.673
34.3 	11.5 	1.7 	289.638
34.4 	11.5 	1.7 	289.621
34.5 	11.5 	1.7 	289.621
34.6 	11.5 	1.7 	289.614
34.7 	11.5 	1.7 	289.606
34.8 	11.5 	1.7 	289.598
34.9 	11.5 	1.7 	289.59
35 	11.5 	1.7 	289.59
35.1 	11.5 	1.7 	289.601
35.2 	11.5 	1.7 	289.639
35.3 	11.5 	1.7 	289.728
31.9 	11.6 	1.7 	289.673
32 	11.6 	1.7 	289.673
32.1 	11.6 	1.7 	289.495
32.2 	11.6 	1.7 	289.446
32.3 	11.6 	1.7 	289.433
32.4 	11.6 	1.7 	289.442
32.5 	11.6 	1.7 	289.442
32.6 	11.6 	1.7 	289.452
32.7 	11.6 	1.7 	289.47
32.8 	11.6 	1.7 	289.509
32.9 	11.6 	1.7 	289.752
33 	11.6 	1.7 	289.752
33.6 	11.6 	1.7 	291.268
33.7 	11.6 	1.7 	291.268
33.8 	11.6 	1.7 	290.777
33.9 	11.6 	1.7 	289.876
34 	11.6 	1.7 	289.876
34.1 	11.6 	1.7 	289.694
34.2 	11.6 	1.7 	289.624
34.3 	11.6 	1.7 	289.601
34.4 	11.6 	1.7 	289.586
34.5 	11.6 	1.7 	289.586
34.6 	11.6 	1.7 	289.579
34.7 	11.6 	1.7 	289.57
34.8 	11.6 	1.7 	289.561
34.9 	11.6 	1.7 	289.551
35 	11.6 	1.7 	289.551
35.1 	11.6 	1.7 	289.558
35.2 	11.6 	1.7 	289.59
35.3 	11.6 	1.7 	289.672
31.9 	11.7 	1.7 	289.664
32 	11.7 	1.7 	289.664
32.1 	11.7 	1.7 	289.485
32.2 	11.7 	1.7 	289.438
32.3 	11.7 	1.7 	289.426
32.4 	11.7 	1.7 	289.433
32.5 	11.7 	1.7 	289.433
32.6 	11.7 	1.7 	289.442
32.7 	11.7 	1.7 	289.456
32.8 	11.7 	1.7 	289.486
32.9 	11.7 	1.7 	289.675
33 	11.7 	1.7 	289.675
33.6 	11.7 	1.7 	290.901
33.7 	11.7 	1.7 	290.901
33.8 	11.7 	1.7 	290.495
33.9 	11.7 	1.7 	289.8
34 	11.7 	1.7 	289.8
34.1 	11.7 	1.7 	289.658
34.2 	11.7 	1.7 	289.603
34.3 	11.7 	1.7 	289.584
34.4 	11.7 	1.7 	289.57
34.5 	11.7 	1.7 	289.57
34.6 	11.7 	1.7 	289.563
34.7 	11.7 	1.7 	289.554
34.8 	11.7 	1.7 	289.545
34.9 	11.7 	1.7 	289.533
35 	11.7 	1.7 	289.533
35.1 	11.7 	1.7 	289.539
35.2 	11.7 	1.7 	289.566
35.3 	11.7 	1.7 	289.642
31.9 	11.8 	1.7 	289.664
32 	11.8 	1.7 	289.664
32.1 	11.8 	1.7 	289.485
32.2 	11.8 	1.7 	289.438
32.3 	11.8 	1.7 	289.426
32.4 	11.8 	1.7 	289.433
32.5 	11.8 	1.7 	289.433
32.6 	11.8 	1.7 	289.442
32.7 	11.8 	1.7 	289.456
32.8 	11.8 	1.7 	289.486
32.9 	11.8 	1.7 	289.675
33 	11.8 	1.7 	289.675
33.6 	11.8 	1.7 	290.901
33.7 	11.8 	1.7 	290.901
33.8 	11.8 	1.7 	290.495
33.9 	11.8 	1.7 	289.8
34 	11.8 	1.7 	289.8
34.1 	11.8 	1.7 	289.658
34.2 	11.8 	1.7 	289.603
34.3 	11.8 	1.7 	289.584
34.4 	11.8 	1.7 	289.57
34.5 	11.8 	1.7 	289.57
34.6 	11.8 	1.7 	289.563
34.7 	11.8 	1.7 	289.554
34.8 	11.8 	1.7 	289.545
34.9 	11.8 	1.7 	289.533
35 	11.8 	1.7 	289.533
35.1 	11.8 	1.7 	289.539
35.2 	11.8 	1.7 	289.566
35.3 	11.8 	1.7 	289.642
31.9 	11.9 	1.7 	289.651
32 	11.9 	1.7 	289.651
32.1 	11.9 	1.7 	289.474
32.2 	11.9 	1.7 	289.43
32.3 	11.9 	1.7 	289.42
32.4 	11.9 	1.7 	289.426
32.5 	11.9 	1.7 	289.426
32.6 	11.9 	1.7 	289.434
32.7 	11.9 	1.7 	289.446
32.8 	11.9 	1.7 	289.47
32.9 	11.9 	1.7 	289.624
33 	11.9 	1.7 	289.624
33.6 	11.9 	1.7 	290.646
33.7 	11.9 	1.7 	290.646
33.8 	11.9 	1.7 	290.293
33.9 	11.9 	1.7 	289.739
34 	11.9 	1.7 	289.739
34.1 	11.9 	1.7 	289.627
34.2 	11.9 	1.7 	289.584
34.3 	11.9 	1.7 	289.568
34.4 	11.9 	1.7 	289.555
34.5 	11.9 	1.7 	289.555
34.6 	11.9 	1.7 	289.548
34.7 	11.9 	1.7 	289.539
34.8 	11.9 	1.7 	289.531
34.9 	11.9 	1.7 	289.518
35 	11.9 	1.7 	289.518
35.1 	11.9 	1.7 	289.521
35.2 	11.9 	1.7 	289.543
35.3 	11.9 	1.7 	289.611
31.9 	12 	1.7 	289.631
32 	12 	1.7 	289.631
32.1 	12 	1.7 	289.461
32.2 	12 	1.7 	289.422
32.3 	12 	1.7 	289.415
32.4 	12 	1.7 	289.421
32.5 	12 	1.7 	289.421
32.6 	12 	1.7 	289.428
32.7 	12 	1.7 	289.438
32.8 	12 	1.7 	289.459
32.9 	12 	1.7 	289.59
33 	12 	1.7 	289.59
33.6 	12 	1.7 	290.454
33.7 	12 	1.7 	290.454
33.8 	12 	1.7 	290.147
33.9 	12 	1.7 	289.692
34 	12 	1.7 	289.692
34.1 	12 	1.7 	289.602
34.2 	12 	1.7 	289.567
34.3 	12 	1.7 	289.553
34.4 	12 	1.7 	289.54
34.5 	12 	1.7 	289.54
34.6 	12 	1.7 	289.534
34.7 	12 	1.7 	289.526
34.8 	12 	1.7 	289.518
34.9 	12 	1.7 	289.505
35 	12 	1.7 	289.505
35.1 	12 	1.7 	289.506
35.2 	12 	1.7 	289.521
35.3 	12 	1.7 	289.579
31.9 	12.1 	1.7 	289.534
32 	12.1 	1.7 	289.534
32.1 	12.1 	1.7 	289.426
32.2 	12.1 	1.7 	289.407
32.3 	12.1 	1.7 	289.407
32.4 	12.1 	1.7 	289.417
32.5 	12.1 	1.7 	289.417
32.6 	12.1 	1.7 	289.422
32.7 	12.1 	1.7 	289.429
32.8 	12.1 	1.7 	289.446
32.9 	12.1 	1.7 	289.506
33 	12.1 	1.7 	289.506
33.6 	12.1 	1.7 	289.924
33.7 	12.1 	1.7 	289.924
33.8 	12.1 	1.7 	289.907
33.9 	12.1 	1.7 	289.621
34 	12.1 	1.7 	289.621
34.1 	12.1 	1.7 	289.563
34.2 	12.1 	1.7 	289.538
34.3 	12.1 	1.7 	289.526
34.4 	12.1 	1.7 	289.514
34.5 	12.1 	1.7 	289.514
34.6 	12.1 	1.7 	289.51
34.7 	12.1 	1.7 	289.505
34.8 	12.1 	1.7 	289.499
34.9 	12.1 	1.7 	289.486
35 	12.1 	1.7 	289.486
35.1 	12.1 	1.7 	289.482
35.2 	12.1 	1.7 	289.486
35.3 	12.1 	1.7 	289.513
31.9 	12.2 	1.7 	289.464
32 	12.2 	1.7 	289.464
32.1 	12.2 	1.7 	289.408
32.2 	12.2 	1.7 	289.401
32.3 	12.2 	1.7 	289.405
32.4 	12.2 	1.7 	289.416
32.5 	12.2 	1.7 	289.416
32.6 	12.2 	1.7 	289.421
32.7 	12.2 	1.7 	289.428
32.8 	12.2 	1.7 	289.443
32.9 	12.2 	1.7 	289.405
33 	12.2 	1.7 	289.405
33.1 	12.2 	1.7 	289.295
33.2 	12.2 	1.7 	289.229
33.3 	12.2 	1.7 	289.201
33.4 	12.2 	1.7 	289.259
33.5 	12.2 	1.7 	289.259
33.6 	12.2 	1.7 	289.372
33.7 	12.2 	1.7 	289.599
33.8 	12.2 	1.7 	289.737
33.9 	12.2 	1.7 	289.596
34 	12.2 	1.7 	289.596
34.1 	12.2 	1.7 	289.547
34.2 	12.2 	1.7 	289.525
34.3 	12.2 	1.7 	289.514
34.4 	12.2 	1.7 	289.503
34.5 	12.2 	1.7 	289.503
34.6 	12.2 	1.7 	289.5
34.7 	12.2 	1.7 	289.496
34.8 	12.2 	1.7 	289.491
34.9 	12.2 	1.7 	289.479
35 	12.2 	1.7 	289.479
35.1 	12.2 	1.7 	289.473
35.2 	12.2 	1.7 	289.472
35.3 	12.2 	1.7 	289.485
31.9 	12.3 	1.7 	289.464
32 	12.3 	1.7 	289.464
32.1 	12.3 	1.7 	289.408
32.2 	12.3 	1.7 	289.401
32.3 	12.3 	1.7 	289.405
32.4 	12.3 	1.7 	289.416
32.5 	12.3 	1.7 	289.416
32.6 	12.3 	1.7 	289.421
32.7 	12.3 	1.7 	289.428
32.8 	12.3 	1.7 	289.443
32.9 	12.3 	1.7 	289.405
33 	12.3 	1.7 	289.405
33.1 	12.3 	1.7 	289.295
33.2 	12.3 	1.7 	289.229
33.3 	12.3 	1.7 	289.201
33.4 	12.3 	1.7 	289.259
33.5 	12.3 	1.7 	289.259
33.6 	12.3 	1.7 	289.372
33.7 	12.3 	1.7 	289.599
33.8 	12.3 	1.7 	289.737
33.9 	12.3 	1.7 	289.596
34 	12.3 	1.7 	289.596
34.1 	12.3 	1.7 	289.547
34.2 	12.3 	1.7 	289.525
34.3 	12.3 	1.7 	289.514
34.4 	12.3 	1.7 	289.503
34.5 	12.3 	1.7 	289.503
34.6 	12.3 	1.7 	289.5
34.7 	12.3 	1.7 	289.496
34.8 	12.3 	1.7 	289.491
34.9 	12.3 	1.7 	289.479
35 	12.3 	1.7 	289.479
35.1 	12.3 	1.7 	289.473
35.2 	12.3 	1.7 	289.472
35.3 	12.3 	1.7 	289.485
31.9 	12.4 	1.7 	289.421
32 	12.4 	1.7 	289.421
32.1 	12.4 	1.7 	289.396
32.2 	12.4 	1.7 	289.397
32.3 	12.4 	1.7 	289.404
32.4 	12.4 	1.7 	289.418
32.5 	12.4 	1.7 	289.418
32.6 	12.4 	1.7 	289.422
32.7 	12.4 	1.7 	289.429
32.8 	12.4 	1.7 	289.44
32.9 	12.4 	1.7 	289.376
33 	12.4 	1.7 	289.376
33.1 	12.4 	1.7 	289.274
33.2 	12.4 	1.7 	289.205
33.3 	12.4 	1.7 	289.178
33.4 	12.4 	1.7 	289.223
33.5 	12.4 	1.7 	289.223
33.6 	12.4 	1.7 	289.325
33.7 	12.4 	1.7 	289.495
33.8 	12.4 	1.7 	289.635
33.9 	12.4 	1.7 	289.576
34 	12.4 	1.7 	289.576
34.1 	12.4 	1.7 	289.534
34.2 	12.4 	1.7 	289.514
34.3 	12.4 	1.7 	289.504
34.4 	12.4 	1.7 	289.494
34.5 	12.4 	1.7 	289.494
34.6 	12.4 	1.7 	289.491
34.7 	12.4 	1.7 	289.488
34.8 	12.4 	1.7 	289.485
34.9 	12.4 	1.7 	289.473
35 	12.4 	1.7 	289.473
35.1 	12.4 	1.7 	289.466
35.2 	12.4 	1.7 	289.463
35.3 	12.4 	1.7 	289.467
31.9 	12.5 	1.7 	289.398
32 	12.5 	1.7 	289.398
32.1 	12.5 	1.7 	289.388
32.2 	12.5 	1.7 	289.395
32.3 	12.5 	1.7 	289.405
32.4 	12.5 	1.7 	289.421
32.5 	12.5 	1.7 	289.421
32.6 	12.5 	1.7 	289.426
32.7 	12.5 	1.7 	289.43
32.8 	12.5 	1.7 	289.437
32.9 	12.5 	1.7 	289.359
33 	12.5 	1.7 	289.359
33.1 	12.5 	1.7 	289.248
33.2 	12.5 	1.7 	289.178
33.3 	12.5 	1.7 	289.158
33.4 	12.5 	1.7 	289.186
33.5 	12.5 	1.7 	289.186
33.6 	12.5 	1.7 	289.282
33.7 	12.5 	1.7 	289.449
33.8 	12.5 	1.7 	289.581
33.9 	12.5 	1.7 	289.559
34 	12.5 	1.7 	289.559
34.1 	12.5 	1.7 	289.522
34.2 	12.5 	1.7 	289.504
34.3 	12.5 	1.7 	289.494
34.4 	12.5 	1.7 	289.485
34.5 	12.5 	1.7 	289.485
34.6 	12.5 	1.7 	289.483
34.7 	12.5 	1.7 	289.481
34.8 	12.5 	1.7 	289.479
34.9 	12.5 	1.7 	289.468
35 	12.5 	1.7 	289.468
35.1 	12.5 	1.7 	289.461
35.2 	12.5 	1.7 	289.456
35.3 	12.5 	1.7 	289.456
31.9 	12.6 	1.7 	289.38
32 	12.6 	1.7 	289.38
32.1 	12.6 	1.7 	289.383
32.2 	12.6 	1.7 	289.394
32.3 	12.6 	1.7 	289.41
32.4 	12.6 	1.7 	289.44
32.5 	12.6 	1.7 	289.44
32.6 	12.6 	1.7 	289.447
32.7 	12.6 	1.7 	289.445
32.8 	12.6 	1.7 	289.439
32.9 	12.6 	1.7 	289.355
33 	12.6 	1.7 	289.355
33.1 	12.6 	1.7 	289.252
33.2 	12.6 	1.7 	289.184
33.3 	12.6 	1.7 	289.165
33.4 	12.6 	1.7 	289.19
33.5 	12.6 	1.7 	289.19
33.6 	12.6 	1.7 	289.285
33.7 	12.6 	1.7 	289.439
33.8 	12.6 	1.7 	289.539
33.9 	12.6 	1.7 	289.529
34 	12.6 	1.7 	289.529
34.1 	12.6 	1.7 	289.503
34.2 	12.6 	1.7 	289.489
34.3 	12.6 	1.7 	289.481
34.4 	12.6 	1.7 	289.476
34.5 	12.6 	1.7 	289.476
34.6 	12.6 	1.7 	289.473
34.7 	12.6 	1.7 	289.47
34.8 	12.6 	1.7 	289.467
34.9 	12.6 	1.7 	289.456
35 	12.6 	1.7 	289.456
35.1 	12.6 	1.7 	289.449
35.2 	12.6 	1.7 	289.444
35.3 	12.6 	1.7 	289.442
31.9 	12.7 	1.7 	289.381
32 	12.7 	1.7 	289.381
32.1 	12.7 	1.7 	289.385
32.2 	12.7 	1.7 	289.398
32.3 	12.7 	1.7 	289.417
32.4 	12.7 	1.7 	289.461
32.5 	12.7 	1.7 	289.461
32.6 	12.7 	1.7 	289.474
32.7 	12.7 	1.7 	289.469
32.8 	12.7 	1.7 	289.454
32.9 	12.7 	1.7 	289.38
33 	12.7 	1.7 	289.38
33.1 	12.7 	1.7 	289.303
33.2 	12.7 	1.7 	289.248
33.3 	12.7 	1.7 	289.225
33.4 	12.7 	1.7 	289.26
33.5 	12.7 	1.7 	289.26
33.6 	12.7 	1.7 	289.345
33.7 	12.7 	1.7 	289.462
33.8 	12.7 	1.7 	289.533
33.9 	12.7 	1.7 	289.519
34 	12.7 	1.7 	289.519
34.1 	12.7 	1.7 	289.499
34.2 	12.7 	1.7 	289.49
34.3 	12.7 	1.7 	289.486
34.4 	12.7 	1.7 	289.481
34.5 	12.7 	1.7 	289.481
34.6 	12.7 	1.7 	289.475
34.7 	12.7 	1.7 	289.468
34.8 	12.7 	1.7 	289.462
34.9 	12.7 	1.7 	289.448
35 	12.7 	1.7 	289.448
35.1 	12.7 	1.7 	289.442
35.2 	12.7 	1.7 	289.437
35.3 	12.7 	1.7 	289.436
31.9 	12.8 	1.7 	289.381
32 	12.8 	1.7 	289.381
32.1 	12.8 	1.7 	289.385
32.2 	12.8 	1.7 	289.398
32.3 	12.8 	1.7 	289.417
32.4 	12.8 	1.7 	289.461
32.5 	12.8 	1.7 	289.461
32.6 	12.8 	1.7 	289.474
32.7 	12.8 	1.7 	289.469
32.8 	12.8 	1.7 	289.454
32.9 	12.8 	1.7 	289.38
33 	12.8 	1.7 	289.38
33.1 	12.8 	1.7 	289.303
33.2 	12.8 	1.7 	289.248
33.3 	12.8 	1.7 	289.225
33.4 	12.8 	1.7 	289.26
33.5 	12.8 	1.7 	289.26
33.6 	12.8 	1.7 	289.345
33.7 	12.8 	1.7 	289.462
33.8 	12.8 	1.7 	289.533
33.9 	12.8 	1.7 	289.519
34 	12.8 	1.7 	289.519
34.1 	12.8 	1.7 	289.499
34.2 	12.8 	1.7 	289.49
34.3 	12.8 	1.7 	289.486
34.4 	12.8 	1.7 	289.481
34.5 	12.8 	1.7 	289.481
34.6 	12.8 	1.7 	289.475
34.7 	12.8 	1.7 	289.468
34.8 	12.8 	1.7 	289.462
34.9 	12.8 	1.7 	289.448
35 	12.8 	1.7 	289.448
35.1 	12.8 	1.7 	289.442
35.2 	12.8 	1.7 	289.437
35.3 	12.8 	1.7 	289.436
31.9 	12.9 	1.7 	289.395
32 	12.9 	1.7 	289.395
32.1 	12.9 	1.7 	289.396
32.2 	12.9 	1.7 	289.411
32.3 	12.9 	1.7 	289.437
32.4 	12.9 	1.7 	289.498
32.5 	12.9 	1.7 	289.498
32.6 	12.9 	1.7 	289.516
32.7 	12.9 	1.7 	289.511
32.8 	12.9 	1.7 	289.485
32.9 	12.9 	1.7 	289.421
33 	12.9 	1.7 	289.421
33.1 	12.9 	1.7 	289.377
33.2 	12.9 	1.7 	289.353
33.3 	12.9 	1.7 	289.344
33.4 	12.9 	1.7 	289.372
33.5 	12.9 	1.7 	289.372
33.6 	12.9 	1.7 	289.422
33.7 	12.9 	1.7 	289.493
33.8 	12.9 	1.7 	289.534
33.9 	12.9 	1.7 	289.517
34 	12.9 	1.7 	289.517
34.1 	12.9 	1.7 	289.507
34.2 	12.9 	1.7 	289.504
34.3 	12.9 	1.7 	289.505
34.4 	12.9 	1.7 	289.497
34.5 	12.9 	1.7 	289.497
34.6 	12.9 	1.7 	289.486
34.7 	12.9 	1.7 	289.473
34.8 	12.9 	1.7 	289.461
34.9 	12.9 	1.7 	289.442
35 	12.9 	1.7 	289.442
35.1 	12.9 	1.7 	289.435
35.2 	12.9 	1.7 	289.432
35.3 	12.9 	1.7 	289.431
31.9 	13 	1.7 	289.446
32 	13 	1.7 	289.446
32.1 	13 	1.7 	289.434
32.2 	13 	1.7 	289.45
32.3 	13 	1.7 	289.486
32.4 	13 	1.7 	289.561
32.5 	13 	1.7 	289.561
32.6 	13 	1.7 	289.577
32.7 	13 	1.7 	289.572
32.8 	13 	1.7 	289.538
32.9 	13 	1.7 	289.472
33 	13 	1.7 	289.472
33.1 	13 	1.7 	289.45
33.2 	13 	1.7 	289.444
33.3 	13 	1.7 	289.445
33.4 	13 	1.7 	289.462
33.5 	13 	1.7 	289.462
33.6 	13 	1.7 	289.488
33.7 	13 	1.7 	289.524
33.8 	13 	1.7 	289.543
33.9 	13 	1.7 	289.534
34 	13 	1.7 	289.534
34.1 	13 	1.7 	289.534
34.2 	13 	1.7 	289.538
34.3 	13 	1.7 	289.54
34.4 	13 	1.7 	289.528
34.5 	13 	1.7 	289.528
34.6 	13 	1.7 	289.513
34.7 	13 	1.7 	289.492
34.8 	13 	1.7 	289.472
34.9 	13 	1.7 	289.443
35 	13 	1.7 	289.443
35.1 	13 	1.7 	289.435
35.2 	13 	1.7 	289.431
35.3 	13 	1.7 	289.43
31.9 	13.1 	1.7 	289.734
32 	13.1 	1.7 	289.734
32.1 	13.1 	1.7 	289.742