/*--------------------------------*- C++ -*----------------------------------*\
| =========                 |                                                 |
| \\      /  F ield         | OpenFOAM: The Open Source CFD Toolbox           |
|  \\    /   O peration     | Version:  2.3.1                                 |
|   \\  /    A nd           | Web:      www.OpenFOAM.org                      |
|    \\/     M anipulation  |                                                 |
\*---------------------------------------------------------------------------*/
FoamFile
{
    version     2.0;
    format      ascii;
    class       surfaceScalarField;
    location    "4";
    object      phi;
}
// * * * * * * * * * * * * * * * * * * * * * * * * * * * * * * * * * * * * * //

dimensions      [0 3 -1 0 0 0 0];

internalField   nonuniform List<scalar> 
2336
(
0.000225436
-0.000312371
0.000285984
-0.000202563
-3.33675e-05
0.000181176
-0.000640953
0.000492385
-0.00133426
0.000619988
-0.00209351
0.000674195
-0.00271809
0.000602361
-0.00296662
0.000124808
-0.00295123
-4.54797e-05
-0.00284962
-0.000122606
-0.00270751
-0.000149054
-0.00255136
-0.000143938
-0.00239485
-0.000125042
-0.00224073
-0.000102409
-0.00208764
-8.05316e-05
-0.00193306
-6.14322e-05
-0.00177471
-4.57835e-05
-0.00161106
-3.35847e-05
-0.00144184
-2.44409e-05
-0.00126813
-1.76829e-05
-0.00109224
-1.25821e-05
-0.000917658
-8.36168e-06
-0.0007492
-3.99875e-06
-0.000593316
2.37099e-06
-0.000459405
1.23388e-05
-0.000355937
2.87094e-05
-0.000305154
5.30231e-05
-0.000335745
0.000102355
-0.000424278
0.000127575
-0.000503856
0.000103024
-0.000517797
4.62573e-05
-0.000445806
-2.32529e-05
-0.000274948
-8.45161e-05
-7.718e-05
-8.96454e-05
-3.1959e-06
0.000151566
-0.000596309
2.90286e-05
-0.000240522
-0.000363166
0.000429206
-0.00088475
0.000890631
-0.00148885
0.00113991
-0.00219501
0.00130644
-0.00287793
0.00135982
-0.00323604
0.000485318
-0.00335484
0.000124313
-0.00342149
-4.04073e-05
-0.00343454
-0.000111011
-0.00341622
-0.00012362
-0.00337793
-0.000109561
-0.00332181
-8.63643e-05
-0.00324815
-6.20694e-05
-0.00315671
-4.03773e-05
-0.003047
-2.281e-05
-0.00291888
-9.8667e-06
-0.00277254
-1.39095e-06
-0.00260964
3.7251e-06
-0.00243338
6.74541e-06
-0.00224721
8.43192e-06
-0.00205497
9.43218e-06
-0.00185922
1.0372e-05
-0.00166237
1.10875e-05
-0.00146461
1.2431e-05
-0.00127395
1.12797e-05
-0.00113896
5.23264e-05
-0.00110007
8.32212e-05
-0.00111922
5.61167e-05
-0.00111654
-2.21018e-05
-0.00102662
-0.000139839
-0.000810103
-0.000265282
-0.000477239
-0.000339727
-0.000286646
6.41106e-05
-0.000794948
-0.000110673
-0.000206812
-0.000440505
0.000606816
-0.00081985
0.0011469
-0.00123985
0.00145058
-0.00173839
0.00165949
-0.00221895
0.00175719
-0.00213516
-0.00185728
-0.00189949
-0.00196996
-0.00201969
-0.0020403
-0.00202329
-0.00196816
-0.0018788
-0.00176045
-0.00161912
-0.00146133
-0.00129229
-0.00111631
-0.000937602
-0.000760558
-0.000588294
-0.000428728
-0.000279845
-0.000207208
-0.000292673
7.632e-05
-0.000470002
0.000121565
-0.000646249
8.78732e-05
-0.000779625
-1.4338e-05
-0.000814927
-0.000187277
-0.0007015
-0.000394128
-0.000436208
-0.000558315
-0.00059135
4.57461e-05
-0.000961371
-0.00010077
-0.000213262
-0.000330637
0.000681116
-0.000530491
0.0012331
-0.000647851
0.00149391
-0.000580941
0.00156654
0.00130588
-5.16288e-05
0.000137173
-0.000155223
0.000210963
-0.000302377
0.000181877
-0.000463621
6.75932e-05
-0.000570379
-0.000154036
-0.00053901
-0.000448335
-0.000346131
-0.000710725
-0.000802742
4.9347e-05
-0.00112647
-7.25724e-05
-0.000263599
-0.000248529
0.000682758
-0.000371835
0.00122118
-0.000407983
0.00141826
-0.000301198
0.00135247
0.000817047
4.45174e-05
0.000146236
3.38018e-05
0.000252936
-4.68639e-05
0.000243323
-0.000191807
0.000139281
-0.000342688
-0.00010184
-0.000385969
-0.000465917
-0.000262776
-0.000823131
-0.000962136
6.56505e-05
-0.00130431
-3.08336e-05
-0.000356949
-0.000163449
0.000631224
-0.000232371
0.00115322
-0.000216913
0.00130275
-0.000125376
0.00118
0.00061205
9.96836e-05
0.00010327
0.000160712
0.000229485
0.000144702
0.000246689
3.74337e-05
0.000168726
-0.000135234
-6.29096e-05
-0.000251534
-0.000468936
-0.000196988
-0.000909756
-0.00108589
7.19744e-05
-0.00149431
-1.34932e-05
-0.000480245
-0.000120958
0.000539456
-0.000159237
0.00104464
-0.000117696
0.00115522
-3.37394e-05
0.00100466
0.000462816
0.000135907
4.01648e-05
0.000249718
0.000157491
0.000282839
0.000200058
0.000213549
0.000152753
4.38375e-05
-5.61492e-05
-0.000133302
-0.000475475
-0.000149574
-0.000986269
-0.00119708
6.16337e-05
-0.00168462
-2.81701e-05
-0.000615038
-0.000126726
0.000425857
-0.000151692
0.00091413
-9.38437e-05
0.000987386
6.51825e-07
0.000813128
0.000326287
0.00017501
-8.91131e-05
0.000333954
2.42811e-05
0.000401481
0.000104045
0.00035451
9.83295e-05
0.000194742
-8.08898e-05
-2.48409e-05
-0.000495333
-0.000112459
-0.00106063
-0.00130743
2.77268e-05
-0.00185523
-8.54316e-05
-0.000737015
-0.000196846
0.000318388
-0.000230656
0.000793381
-0.000163121
0.000831524
-3.05887e-05
0.000628214
0.000283434
0.000227605
-0.000208031
0.000429435
-0.000135383
0.000520609
-1.05093e-05
0.000481185
2.99605e-05
0.000322931
-0.000117734
7.63506e-05
-0.000523553
-7.59006e-05
-0.00112903
-0.00141409
-3.8417e-05
-0.00198441
-0.000207591
-0.000819783
-0.000374796
0.000248633
-0.000466096
0.000707679
-0.000434713
0.000681656
-0.000243104
0.000337202
-0.000192218
0.000401476
-0.000651227
0.000646371
-0.000394666
0.000721543
-0.000149633
0.000654858
-4.00136e-05
0.000466956
-0.000148984
0.000188097
-0.00054576
-2.71532e-05
-0.00118117
-0.00150588
-0.000110952
-0.0020547
-0.00035608
-0.000832937
-0.000608436
0.000260562
-0.000794754
0.000727893
-0.000818788
0.000659768
-0.000645093
0.000195107
-0.000596165
0.000699637
-0.00109075
0.000930051
-0.00058662
0.000965799
-0.000226883
0.00084668
-5.8658e-05
0.000614502
-0.000144197
0.000302046
-0.000542741
3.0978e-05
-0.00120367
-0.00157239
-0.000205656
-0.00205268
-0.000581337
-0.000742563
-0.00100447
0.000400913
-0.00143367
0.000932035
-0.00184379
0.000943952
-0.00235557
0.000609999
-0.00296798
7.91685e-05
-0.00325589
0.000296734
-0.00326831
0.000313349
-0.00326615
0.000281075
-0.0031766
0.000235359
-0.00299417
0.000178473
-0.00271368
0.000106835
-0.0023324
2.09349e-05
-0.00185596
-7.18061e-05
-0.00129715
-0.000151259
-0.000693625
-0.00018947
-0.000123093
-0.000144818
0.000228829
7.861e-05
0.000373424
0.000302153
0.000508059
0.000288882
0.000702833
0.000179656
0.000970542
4.36024e-05
0.00127517
-6.68493e-05
0.00158646
-0.000138053
0.00204233
-0.000210658
0.00223551
-0.000362949
0.00196558
-0.000771966
0.001697
-0.000395531
0.00145668
-8.60584e-05
0.00116283
5.35667e-05
0.000821727
-6.22728e-05
0.000438745
-0.000489258
0.000100353
-0.00118401
-0.00160864
-0.000271031
-0.00198923
-0.000743261
-0.00057138
-0.00127576
0.000621635
-0.00181633
0.00122393
-0.00234949
0.00135383
-0.00296379
0.00120121
-0.00361669
0.000925848
-0.00405306
0.000926415
-0.00427455
0.000843246
-0.00438849
0.000752463
-0.00439717
0.00065961
-0.00430443
0.000557033
-0.00410391
0.000425142
-0.00377721
0.000249989
-0.00330723
3.56548e-05
-0.00269465
-0.000181099
-0.0019545
-0.000343071
-0.0011236
-0.000391707
-0.000215717
-0.000242357
0.000616675
2.43e-05
0.00127753
9.55741e-05
0.00183692
3.47044e-05
0.00228582
-5.69843e-05
0.00261459
-0.00011792
0.00283414
-0.000136953
0.00296073
-0.000131882
0.00285444
-0.000134881
0.00249349
-0.000264681
0.0021209
-4.12425e-05
0.00177822
0.000166858
0.00140047
0.000238565
0.000991089
7.09844e-05
0.000553306
-0.000393763
0.00015905
-0.00112649
-0.00161837
-0.000322394
-0.00188501
-0.000878468
-0.000354144
-0.0014956
0.000866853
-0.00209695
0.00151515
-0.00266238
0.00172711
-0.00321547
0.00167968
-0.00371979
0.00149919
-0.00406215
0.00141541
-0.00424953
0.0013088
-0.00433462
0.00120186
-0.00432423
0.00109451
-0.00422257
0.000973778
-0.00402435
0.000801351
-0.00371767
0.000558882
-0.00328527
0.000244348
-0.00271066
-0.000109089
-0.00198816
-0.000421245
-0.00114282
-0.000616392
-0.000169191
-0.000612895
0.00079303
-0.000416988
0.00158639
-0.000253149
0.00221329
-0.000192013
0.00267394
-0.000171684
0.00298696
-0.000145388
0.00317065
-9.92272e-05
0.00323338
-3.35146e-05
0.00311485
3.825e-05
0.0028071
8.63285e-05
0.00243513
0.000273702
0.00204631
0.000417114
0.00161708
0.000433547
0.00114825
0.000225133
0.000654997
-0.000271176
0.000208248
-0.00104102
-0.00160823
-0.000351781
-0.00175754
-0.000967005
-0.000117307
-0.001639
0.00111465
-0.00226768
0.00178833
-0.00282042
0.00205325
-0.0032999
0.00207041
-0.0036913
0.00195606
-0.00394704
0.00184789
-0.00406957
0.00172505
-0.00408811
0.0016105
-0.0040167
0.00150242
-0.00386626
0.00137898
-0.00363303
0.00118343
-0.00330516
0.000899262
-0.00287087
0.000512109
-0.00231714
4.316e-05
-0.0016353
-0.000416637
-0.000841914
-0.00076986
5.75505e-05
-0.000912231
0.00094585
-0.000781902
0.00170459
-0.000559935
0.00232178
-0.000390816
0.00278127
-0.000262746
0.00309348
-0.000146524
0.00327024
-2.51455e-05
0.00331771
0.000109277
0.00321426
0.000247734
0.00296613
0.000374126
0.00263286
0.000539829
0.00224073
0.000646295
0.00178515
0.000624627
0.00127332
0.000388594
0.000732231
-0.000130741
0.000242166
-0.000935424
-0.00158413
-0.000370341
-0.00162495
-0.00102862
0.000109431
-0.001737
0.00134099
-0.00237798
0.00202343
-0.00290943
0.00231512
-0.00332505
0.00236525
-0.00361953
0.00228245
-0.00377892
0.00216873
-0.00381208
0.00204453
-0.00374184
0.00193946
-0.00359239
0.00184653
-0.00338494
0.00174922
-0.00311179
0.00155986
-0.00275985
0.00126585
-0.00232146
0.000835223
-0.00179354
0.000276504
-0.00117459
-0.000318416
-0.000466637
-0.000829746
0.000310635
-0.00111033
0.00108055
-0.00104525
0.0017718
-0.000792279
0.00235445
-0.000544014
0.00280602
-0.000329166
0.0031252
-0.000138382
0.00331573
4.36248e-05
0.00338094
0.000228398
0.00331114
0.000413285
0.00311067
0.000586166
0.00280629
0.000750136
0.00241218
0.000841248
0.00193231
0.00079988
0.00138065
0.000548694
0.000793948
1.56645e-05
0.000264369
-0.000817591
-0.00155086
-0.000380312
-0.00150194
-0.00106771
0.000314381
-0.00179614
0.00153806
-0.0024368
0.00221809
-0.00294093
0.00251901
-0.00329886
0.00258251
-0.00351014
0.00251267
-0.00357521
0.0023954
-0.0035087
0.00226957
-0.00333518
0.00217683
-0.00309735
0.00210902
-0.00283451
0.00207716
-0.00252878
0.00192373
-0.0021663
0.00165758
-0.00174599
0.0012222
-0.00127035
0.000605327
-0.000739921
-0.000103655
-0.000133361
-0.000789575
0.000525282
-0.00120431
0.00119215
-0.00120743
0.0018284
-0.000952421
0.00238707
-0.000653058
0.00284063
-0.000374859
0.00317637
-0.000125871
0.00338787
0.000106714
0.0034736
0.000333837
0.00342936
0.000555404
0.00325683
0.000758106
0.00296712
0.000926833
0.00256721
0.00101346
0.00206356
0.000963347
0.00147411
0.000705236
0.000843151
0.000164412
0.000276561
-0.000692892
-0.00151102
-0.00038723
-0.00139878
-0.00109349
0.000485641
-0.00182992
0.00169845
-0.00246182
0.00236794
-0.00293504
0.00266396
-0.00323779
0.00272403
-0.00337104
0.00264947
-0.0033403
0.00251955
-0.00316579
0.00238347
-0.00287865
0.00229635
-0.00254956
0.0022653
-0.0022482
0.00234981
-0.00193241
0.0022545
-0.00158528
0.00205257
-0.00121994
0.00165936
-0.000834656
0.00102794
-0.000420402
0.000243822
8.03808e-05
-0.000661046
0.000654435
-0.00122447
0.00126588
-0.00131399
0.00187952
-0.00107555
0.00243733
-0.000745115
0.0029061
-0.000420809
0.0032634
-0.000125845
0.00349623
0.000149783
0.00360018
0.000414837
0.00357322
0.000669033
0.00341482
0.000896904
0.00312885
0.00107598
0.0027185
0.00116549
0.0021902
0.00111446
0.00156354
0.000855527
0.000887724
0.000312388
0.000283135
-0.000564957
-0.00146587
-0.000392563
-0.0013189
-0.00111063
0.000619884
-0.00184711
0.0018213
-0.00246465
0.00247414
-0.00290484
0.0027536
-0.00315423
0.00279563
-0.00321322
0.00269987
-0.00308722
0.00254232
-0.00280157
0.0023796
-0.00239405
0.00228096
-0.00197833
0.00229194
-0.00167326
0.00255902
-0.00137822
0.00251744
-0.00106929
0.00239404
-0.000785894
0.00208283
-0.000536679
0.0015012
-0.000279828
0.000704309
0.000136831
-0.000485429
0.000685616
-0.00123292
0.00129758
-0.00142122
0.0019277
-0.00120129
0.00250844
-0.000845753
0.00300307
-0.000481172
0.00338314
-0.00014365
0.00363339
0.000173239
0.00374967
0.000475268
0.00373207
0.00076064
0.00357925
0.00101196
0.00329125
0.00120441
0.00286843
0.00130143
0.00231602
0.00125475
0.001654
0.000999432
0.000933606
0.000457845
0.00028804
-0.000435049
-0.00141579
-0.0003979
-0.00126025
-0.00112498
0.000720086
-0.00185764
0.00190863
-0.00245835
0.00253899
-0.0028656
0.00279135
-0.00306468
0.00280179
-0.00305478
0.00266891
-0.00283878
0.00246582
-0.00244692
0.00225481
-0.0019184
0.00211824
-0.00142826
0.00216783
-0.00116775
0.00270401
-0.000920102
0.0026694
-0.000648036
0.00260073
-0.000433548
0.00238527
-0.000337338
0.00193242
-0.000285331
0.0012384
6.84725e-05
-0.000314145
0.000651199
-0.00130544
0.00130763
-0.00157955
0.00198304
-0.00136121
0.00260069
-0.000973544
0.00312458
-0.000566109
0.0035244
-0.00018441
0.00378724
0.000174249
0.00391099
0.000513243
0.00389776
0.000829404
0.0037462
0.00110411
0.00345388
0.00131256
0.00301873
0.00142107
0.0024439
0.00138334
0.00174856
0.00113564
0.000984528
0.000598604
0.000294402
-0.000304006
-0.00136098
-0.000405214
-0.00121732
-0.00114152
0.000792383
-0.00187006
0.0019656
-0.00245443
0.00256756
-0.00283126
0.0027833
-0.00298575
0.00275049
-0.00291649
0.00256707
-0.00262368
0.00230292
-0.00214202
0.00202234
-0.00150093
0.00181468
-0.000951327
0.00188615
-0.000777604
0.00284423
-0.000590085
0.00270671
-0.000331825
0.00265473
-0.000143715
0.00252765
-0.000157026
0.0022487
-0.00031374
0.00181848
-5.4315e-06
-0.000211344
0.000646708
-0.00148861
0.00135326
-0.00179951
0.00207323
-0.00155574
0.0027216
-0.00112608
0.00326633
-0.000672539
0.00367731
-0.000245439
0.00394573
0.000154486
0.00407241
0.000529299
0.00406066
0.000875075
0.00390924
0.0011729
0.00361355
0.00139941
0.0031685
0.00152303
0.00257449
0.00149879
0.00184857
0.00126303
0.00104293
0.000734211
0.000304904
-0.000173742
-0.00130169
-0.000416037
-0.00118364
-0.0011646
0.000844781
-0.00189183
0.00199916
-0.0024629
0.00256648
-0.0028139
0.00273717
-0.00293211
0.00265217
-0.00281772
0.00241025
-0.00247068
0.00207797
-0.00192942
0.00171834
-0.00120709
0.00141176
-0.000590067
0.00147019
-0.000471641
0.00308831
-0.000348426
0.0027041
-0.000112888
0.00263056
5.07933e-05
0.00257729
-2.49714e-05
0.00248751
-0.000285647
0.00245768
5.13045e-05
-0.000199045
0.000774805
-0.00176177
0.00149478
-0.00203112
0.00222405
-0.00175114
0.00287658
-0.00128148
0.00342239
-0.000787685
0.00383121
-0.000320413
0.00409707
0.000115929
0.0042228
0.000522797
0.00421205
0.000895347
0.00406224
0.00121542
0.00376614
0.00146168
0.00331542
0.00160418
0.00270684
0.00159848
0.00195412
0.00137981
0.00110958
0.000863753
0.000321106
-4.5324e-05
-0.00123852
-0.000431608
-0.00115198
-0.00119792
0.000886266
-0.00192866
0.00201712
-0.00249061
0.00254299
-0.00282109
0.00266139
-0.00291168
0.00251865
-0.00276673
0.00221738
-0.00239139
0.00182332
-0.00182772
0.00139636
-0.00105461
0.000991517
-0.000286588
0.000846158
-0.000126663
-0.000136102
-8.39263e-06
6.6216e-05
-9.62419e-05
-0.000245983
0.000322659
-0.000494869
0.00108368
-0.00198922
0.00174048
-0.00218291
0.00243072
-0.00189378
0.0030532
-0.00140885
0.003578
-0.000894344
0.00397201
-0.000400968
0.00422878
6.1546e-05
0.00435145
0.000493304
0.0043429
0.000887679
0.00419814
0.00122823
0.00390677
0.00149563
0.00345618
0.001661
0.00283905
0.00167958
0.00206481
0.0014845
0.00118577
0.000987462
0.000345001
8.30434e-05
-0.00117173
-0.00045339
-0.00111494
-0.00124463
0.000925704
-0.00198467
0.00202702
-0.00254155
0.00250375
-0.0028548
0.00256266
-0.00292225
0.00235814
-0.00275386
0.0019987
-0.00236448
0.00155315
-0.00178177
0.00107643
-0.00107717
0.000600624
0.000160689
0.000848286
-0.000888057
0.00142273
-0.00208255
0.00202231
-0.00224393
0.00264262
-0.00197168
0.00321989
-0.00149995
0.00371052
-0.000986621
0.00408285
-0.000484366
0.00432774
-8.30597e-06
0.00444793
0.000439214
0.00444492
0.000849173
0.00431014
0.00120783
0.00402966
0.00149752
0.00358641
0.00169002
0.00296834
0.00173943
0.00217942
0.00157586
0.00127246
0.00110579
0.000379485
0.000213006
-0.00110077
-0.000483245
-0.00106499
-0.00130719
0.000971249
-0.00206158
0.0020357
-0.00261558
0.00245448
-0.00291136
0.00244602
-0.00295303
0.00217472
-0.00275481
0.00175565
-0.00233136
0.00126076
-0.00171228
0.000738729
-0.000940252
0.000203962
-0.000344337
0.000866876
-0.00118844
0.0015356
-0.00217129
0.00216144
-0.00229356
0.0027684
-0.00202608
0.00332145
-0.0015737
0.00378734
-0.00107272
0.00414288
-0.00057451
0.00438021
-9.61945e-05
0.00450243
0.000358227
0.00450976
0.000777587
0.00439105
0.00115174
0.00412884
0.00146467
0.00370129
0.00168851
0.00309109
0.00177575
0.00229581
0.00165275
0.00136951
0.00121915
0.000427569
0.000347372
-0.00102339
-0.000523623
-0.000994743
-0.00138766
0.00102959
-0.00216044
0.00204886
-0.00271291
0.00240034
-0.00299065
0.00231683
-0.00300546
0.00197387
-0.002777
0.0014937
-0.00232299
0.000950346
-0.0016707
0.0003864
-0.000877505
-0.000196826
-0.000730715
0.000858487
-0.00151223
0.00157801
-0.00230643
0.00222471
-0.00235679
0.00282393
-0.00207869
0.00335772
-0.0016423
0.0038034
-0.00115881
0.00414607
-0.000673929
0.00438025
-0.000203104
0.00450895
0.00024992
0.00453141
0.000672935
0.00443461
0.00105969
0.00419796
0.00139619
0.00379485
0.0016549
0.0032022
0.00178651
0.0024102
0.00171308
0.00147398
0.00132592
0.000490922
0.000484341
-0.000938232
-0.000576679
-0.00089802
-0.00148617
0.00110537
-0.00227916
0.00207078
-0.00282929
0.0023463
-0.00308651
0.0021812
-0.00307148
0.00176305
-0.00281079
0.00122196
-0.00232632
0.000633902
-0.00164945
3.45762e-05
-0.000849587
-0.000563423
-0.00105498
0.000802692
-0.00174444
0.00154142
-0.00242559
0.00220437
-0.00242028
0.00280166
-0.00213008
0.00332307
-0.00170851
0.00375507
-0.00124573
0.00409001
-0.000781069
0.00432518
-0.000326003
0.00446378
0.000117787
0.00450495
0.000539244
0.00443498
0.000935073
0.00423059
0.00129425
0.00386069
0.00158978
0.00329594
0.00177067
0.00251825
0.0017543
0.00158078
0.00142269
0.000567033
0.000619857
-0.000834548
-0.000643199
-0.000772974
-0.00159993
0.00120044
-0.00241236
0.00210424
-0.00295735
0.00229693
-0.00319027
0.00204554
-0.00314136
0.00154986
-0.00284436
0.000947286
-0.00232515
0.00031541
-0.00162192
-0.000310684
-0.00081621
-0.0009
-0.00132098
0.000719248
-0.00190629
0.00145288
-0.00252927
0.00212133
-0.00248783
0.0027171
-0.00218538
0.00322929
-0.00177498
0.00365094
-0.00133182
0.00398034
-0.000890253
0.00421717
-0.000456539
0.00436594
-2.92198e-05
0.00442737
0.000385826
0.00438709
0.000786452
0.00422019
0.00116569
0.00389151
0.00149747
0.0033651
0.00172949
0.00261369
0.00177488
0.0016842
0.00150641
0.000653669
0.000751675
-0.000705488
-0.00071967
-0.000626867
-0.00172175
0.00131279
-0.00255028
0.00215037
-0.00308493
0.00225706
-0.00328819
0.00191878
-0.00320049
0.00134661
-0.00286033
0.000683303
-0.00229581
6.69195e-06
-0.00154964
-0.000634446
-0.000715518
-0.00119885
-0.00143844
0.00057459
-0.00190908
0.00130711
-0.00260059
0.00198174
-0.00255137
0.00258115
-0.00224069
0.00308817
-0.00183794
0.00350136
-0.00140894
0.0038245
-0.000988065
0.00406021
-0.000577494
0.00421659
-0.000173167
0.00429723
0.000228895
0.00428688
0.000629006
0.00416029
0.00102325
0.00387873
0.0013873
0.00340002
0.00166793
0.00268699
0.00177523
0.00177563
0.00157428
0.000740804
0.000875803
-0.000565227
-0.000798711
-0.000468535
-0.00184145
0.00143738
-0.00268038
0.00220815
-0.00319797
0.00223119
-0.00336712
0.00181114
-0.00323932
0.0011669
-0.00285543
0.000441364
-0.00223529
-0.000294012
-0.00139919
-0.00100051
-0.000451957
-0.00158346
-0.00135487
0.000303594
-0.00173118
0.00110665
-0.00276781
0.00181901
-0.00267741
0.00242644
-0.00231444
0.00292554
-0.00189833
0.00332573
-0.00146937
0.00363474
-0.00105893
0.00386464
-0.000668084
0.0040243
-0.000288419
0.00411691
9.36562e-05
0.00413235
0.000485631
0.00404505
0.000886261
0.0038137
0.00127374
0.00339021
0.00159447
0.00272696
0.00175711
0.00184425
0.00162225
0.000815324
0.000985392
-0.000426417
-0.000871052
-0.00029424
-0.00194584
0.00156929
-0.00278586
0.00227493
-0.00327631
0.00222358
-0.00340402
0.00173593
-0.00322978
0.00103257
-0.00278703
0.000243093
-0.00205836
-0.000579555
-0.0010509
-0.00139752
-3.6315e-05
-0.00184352
-0.000927617
-7.7382e-05
-0.00125065
0.000757278
-0.00281718
0.00160087
-0.00287289
0.00225751
-0.00241547
0.00275391
-0.00194837
0.00314001
-0.0015008
0.00343012
-0.00108507
0.00364612
-0.000703382
0.00379701
-0.00034245
0.00389011
1.48252e-05
0.00392319
0.000387023
0.0038704
0.000779971
0.00368887
0.00117579
0.00332572
0.00152048
0.00272299
0.00172323
0.00188071
0.00164524
0.000867047
0.00107252
-0.000287748
-0.000924741
-0.000122033
-0.00202297
0.00169961
-0.00285314
0.00234477
-0.00330827
0.00223623
-0.00339462
0.00170653
-0.00318911
0.000969669
-0.00271044
0.000116399
-0.00192289
-0.000830349
-0.000875156
-0.00177158
-0.000327632
-0.00205565
-0.000253649
-0.00101634
2.21108e-05
0.0011271
0.000144585
0.00117732
5.58536e-05
0.00109237
-2.99414e-05
0.0010923
0.000108263
0.00117568
0.000395514
0.00110563
0.000373554
-0.00127129
0.000709087
-0.00280881
0.00154128
-0.003069
0.00217656
-0.00252189
0.00262967
-0.00196794
0.00297072
-0.0014821
0.00322232
-0.00104462
0.00340682
-0.000656213
0.00353754
-0.00030375
0.00362138
2.98026e-05
0.00366039
0.000368199
0.00363452
0.00073233
0.00349911
0.00111456
0.00319842
0.00145902
0.0026654
0.00167751
0.00187766
0.001638
0.000888363
0.00112627
-0.000168332
-0.00095202
3.41842e-05
-0.00206397
0.00181482
-0.0028692
0.00240719
-0.00327699
0.00226638
-0.00331483
0.00173064
-0.00307089
0.000999351
-0.00254178
0.000100374
-0.00165318
-0.000989487
-0.000478809
-0.00208345
0.000479934
-0.00246222
0.000938979
-0.00175932
0.0009198
-0.000470282
0.000571541
-0.000626424
8.80866e-05
-0.000733888
-0.000372997
-0.000756447
-0.000678964
-0.000672893
-0.000680737
-0.000510791
-0.0002851
-0.00197286
0.00050037
-0.00306081
0.00143901
-0.003245
0.00210316
-0.002597
0.00251374
-0.00193325
0.00279774
-0.00139045
0.00299659
-0.000915781
0.00313578
-0.000503856
0.00323761
-0.000147263
0.00330777
0.000163095
0.00334683
0.000451872
0.00334129
0.000764356
0.00324643
0.00110716
0.00300703
0.00142158
0.0025502
0.00162386
0.00183227
0.00159551
0.000878702
0.00113433
-8.43012e-05
-0.000963374
0.000184439
-0.0020718
0.00189948
-0.0028413
0.00244917
-0.00319945
0.00230746
-0.00319684
0.00180874
-0.00293841
0.00113324
-0.00243054
0.000242467
-0.0015881
-0.000968054
-0.000410697
-0.0022306
0.0007227
-0.00277128
0.00130259
-0.00222557
0.000993298
-0.00128763
0.000516591
-0.00126402
8.1135e-05
-0.00128965
-0.000312156
-0.00136338
-0.000726404
-0.00141503
-0.00100021
-0.00141974
-0.000415941
-0.00251001
0.000604556
-0.00333774
0.00154656
-0.00333995
0.00212194
-0.00257553
0.00242964
-0.00180699
0.00262183
-0.00120091
0.00274329
-0.000679716
0.00282181
-0.000234516
0.00288783
0.000125609
0.00295299
0.000399146
0.0030001
0.000629334
0.00300964
0.000878499
0.00294804
0.00115993
0.00276412
0.00141458
0.00238491
0.00156546
0.00174877
0.00151416
0.000851247
0.00108553
-3.28577e-05
-0.000962037
0.000326389
-0.00205235
0.00193635
-0.00278456
0.00245687
-0.00310059
0.00234967
-0.00306504
0.001929
-0.0027877
0.0013526
-0.00230715
0.000544982
-0.00155592
-0.000713106
-0.000448589
-0.00211963
0.000779776
-0.00281561
0.00148235
-0.0023945
0.00103262
-0.00139917
0.000474381
-0.00103135
6.2748e-05
-0.00102401
-0.00029714
-0.00115138
-0.000769198
-0.0013071
-0.00113032
-0.00169962
-0.000340834
-0.0028391
0.000824265
-0.00345645
0.00169741
-0.00325962
0.00214209
-0.00239346
0.00232803
-0.00155617
0.00242266
-0.000903956
0.00246978
-0.000348576
0.00250578
0.000111529
0.00256068
0.000451305
0.00263106
0.000688014
0.00268132
0.000869594
0.00269388
0.00105857
0.00264946
0.0012668
0.00250555
0.00143843
0.0021937
0.00150565
0.00164034
0.00139477
0.000813668
0.00097267
-2.17629e-05
-0.000951863
0.000452133
-0.00202165
0.00190793
-0.00273398
0.00241389
-0.00303817
0.00237595
-0.00299767
0.00206064
-0.00271157
0.00159578
-0.00228537
0.000925074
-0.00172278
-0.000244596
-0.000896697
-0.00170428
0.000165672
-0.00254637
0.000923468
-0.00234603
0.000605105
-0.00159651
0.000219581
-0.00107965
4.79565e-05
-0.0010859
-5.53545e-05
-0.00127073
-0.000305104
-0.00151712
-0.000445848
-0.00215033
0.000447649
-0.0029912
0.00143016
-0.00333733
0.00200597
-0.00293261
0.00221818
-0.00201925
0.00225409
-0.0011822
0.0022689
-0.000535455
0.00229068
9.78525e-06
0.00234427
0.000443799
0.00241497
0.000762309
0.00247392
0.000987611
0.00249745
0.0011413
0.00248467
0.00127939
0.00242869
0.00141148
0.00229581
0.00148684
0.00202305
0.00144792
0.00153241
0.00124628
0.000773239
0.000801634
-5.11677e-05
-0.000935131
0.000543992
-0.00199415
0.00178681
-0.00271742
0.00228632
-0.00304682
0.00233986
-0.00301838
0.00213305
-0.00269654
0.00175882
-0.00222822
0.0012133
-0.00174129
0.000265762
-0.00115407
-0.00109553
-0.000351198
-0.00204919
0.000375741
-0.00210996
0.000322621
-0.00172693
0.000100235
-0.00126744
7.32555e-06
-0.00130908
6.34136e-05
-0.0016213
0.000141279
-0.00200021
0.000351906
-0.00259466
0.00119317
-0.0029628
0.00190283
-0.00297607
0.00221121
-0.00239193
0.00224447
-0.00150735
0.0022158
-0.000761449
0.00224487
-0.000186685
0.00232835
0.000302193
0.00243779
0.000700862
0.00252477
0.00101968
0.00255965
0.00125475
0.00253436
0.00139982
0.00247064
0.0014981
0.00237434
0.0015575
0.00221729
0.00153563
0.00193994
0.00138576
0.00146716
0.00108037
0.000744462
0.00059337
-0.000109108
-0.00091337
0.000571347
-0.00197812
0.00153477
-0.00274509
0.00201963
-0.00312678
0.00216364
-0.0031113
0.00203977
-0.00275269
0.00172049
-0.00221719
0.00126939
-0.00173641
0.000598451
-0.0013517
-0.000446044
-0.000870385
-0.0013551
-0.000395285
-0.001526
-0.00024525
-0.0012555
-5.18144e-05
-0.000788724
0.000261818
-0.000894442
0.000707832
-0.00137383
0.00116311
-0.00188178
0.00151447
-0.00241475
0.00203292
-0.00255024
0.00236299
-0.00234436
0.00238482
-0.00170697
0.0023062
-0.000972909
0.00230008
-0.000394792
0.0024016
7.43976e-05
0.0025546
0.000492232
0.00270684
0.000857673
0.00281313
0.00116699
0.00284251
0.00140588
0.00278581
0.00155369
0.00267561
0.00162098
0.00253278
0.00161643
0.002331
0.00151256
0.0020079
0.00127539
0.00149189
0.000893408
0.000744305
0.000383796
-0.000163593
-0.000895064
0.000285314
-0.00196375
0.000975519
-0.00277722
0.00141679
-0.0031887
0.00158115
-0.00313992
0.00149899
-0.00271678
0.00127487
-0.00211407
0.000977765
-0.00157302
0.000603887
-0.00125573
3.18909e-05
-0.000990891
-0.000595904
-0.000673245
-0.000748247
-0.000332477
-0.000568062
0.000269556
-0.000208282
0.000994981
-0.000406264
0.00165442
-0.000887346
0.00214173
-0.00133827
0.00238882
-0.0017394
0.00255361
-0.00174808
0.00253957
-0.00150048
0.00239211
-0.000998757
0.00231678
-0.000519593
0.0023782
-0.000132404
0.00253417
0.000210233
0.00273159
0.000528957
0.00293364
0.000820256
0.00309816
0.00107929
0.00317709
0.00129359
0.00314176
0.00144152
0.00302364
0.00150177
0.00285511
0.00145869
0.00261265
0.00130595
0.00222835
0.0010258
0.0016321
0.000619718
0.00080014
0.000148248
-0.000212961
-0.000827577
-9.80145e-05
-0.00186237
0.000162099
-0.0026789
0.000435606
-0.00305658
0.000594436
-0.00293274
0.000628107
-0.0024592
0.00058446
-0.0018517
0.000492052
-0.00128397
0.000368942
-0.000940266
0.000179823
-0.00072886
-7.62673e-05
-0.000427713
-0.000160519
0.00012535
-0.000124874
0.000988186
-1.81125e-07
0.00183826
-0.000163658
0.00245569
-0.000424198
0.00276898
-0.000647041
0.00276687
-0.000829152
0.00259384
-0.00079096
0.00232587
-0.000644112
0.00210046
-0.000400987
0.00203697
-0.000181207
0.00210487
1.51052e-05
0.00226742
0.000192271
0.00250722
0.000355995
0.00279207
0.000508833
0.00307098
0.000651524
0.00328153
0.000776925
0.00335587
0.000868473
0.00329944
0.000903483
0.00315445
0.000855495
0.00290173
0.000719679
0.00247207
0.000491246
0.00179382
0.00018329
0.000872856
-0.000117481
-0.000233125
-0.000558996
-0.00133502
-0.00192882
-0.00212008
-0.00191101
-0.00144204
-0.00089509
-0.00038265
-2.05137e-05
0.000202315
0.000445694
0.000835101
0.00135338
0.0017913
0.00202855
0.00202238
0.00177525
0.00141447
0.00104943
0.000784143
0.000669289
0.000705776
0.000900027
0.00122365
0.00164312
0.00210303
0.00252869
0.00283689
0.00296401
0.0028849
0.00260554
0.00212548
0.00145003
0.000658102
)
;

boundaryField
{
    floor
    {
        type            empty;
        value           nonuniform 0();
    }
    ceiling
    {
        type            empty;
        value           nonuniform 0();
    }
    fixedWalls
    {
        type            calculated;
        value           uniform 0;
    }
    rack2796428BA49E0232CAC645AEBC8DA5C1_fixedWall
    {
        type            calculated;
        value           uniform 0;
    }
    rack2796428BA49E0232CAC645AEBC8DA5C1_inlet
    {
        type            calculated;
        value           nonuniform List<scalar> 6(-0.00202977 -0.00230013 -0.00228969 -0.0022914 -0.00230031 -0.00199449);
    }
    rack2796428BA49E0232CAC645AEBC8DA5C1_outlet
    {
        type            calculated;
        value           nonuniform List<scalar> 6(0.0509999 0.0509999 0.0509999 0.0509999 0.0509999 0.0509999);
    }
    acu380F56D59CF2B3DF6EFF9D0E6E8D39CB_fixedWall
    {
        type            calculated;
        value           uniform 0;
    }
}


// ************************************************************************* //
