/*--------------------------------*- C++ -*----------------------------------*\
| =========                 |                                                 |
| \\      /  F ield         | OpenFOAM: The Open Source CFD Toolbox           |
|  \\    /   O peration     | Version:  2.3.1                                 |
|   \\  /    A nd           | Web:      www.OpenFOAM.org                      |
|    \\/     M anipulation  |                                                 |
\*---------------------------------------------------------------------------*/
FoamFile
{
    version     2.0;
    format      ascii;
    class       volScalarField;
    location    "4";
    object      T;
}
// * * * * * * * * * * * * * * * * * * * * * * * * * * * * * * * * * * * * * //

dimensions      [0 0 0 1 0 0 0];

internalField   nonuniform List<scalar> 
1227
(
290.206
290.206
290.217
290.28
290.326
290.333
290.333
290.331
290.328
290.324
290.32
290.315
290.311
290.306
290.301
290.295
290.289
290.283
290.278
290.273
290.269
290.265
290.26
290.254
290.25
290.246
290.241
290.235
290.228
290.222
290.214
290.209
290.203
290.198
290.195
290.182
290.189
290.226
290.293
290.331
290.337
290.335
290.33
290.324
290.319
290.314
290.308
290.302
290.296
290.289
290.283
290.277
290.273
290.269
290.266
290.262
290.257
290.252
290.245
290.237
290.23
290.222
290.215
290.207
290.198
290.191
290.188
290.189
290.192
290.194
290.15
290.166
290.229
290.299
290.334
290.34
290.338
290.335
290.331
290.326
290.32
290.315
290.309
290.302
290.297
290.292
290.287
290.282
290.276
290.27
290.264
290.26
290.258
290.255
290.251
290.243
290.222
290.189
290.167
290.155
290.152
290.153
290.157
290.163
290.168
290.114
290.139
290.218
290.293
290.33
290.341
290.341
290.131
290.122
290.114
290.111
290.116
290.125
290.136
290.146
290.074
290.102
290.196
290.276
290.321
290.335
290.337
290.088
290.091
290.086
290.077
290.079
290.088
290.107
290.127
290.028
290.061
290.165
290.251
290.303
290.325
290.329
290.071
290.07
290.064
290.053
290.045
290.047
290.073
290.106
289.978
290.015
290.127
290.219
290.277
290.308
290.318
290.07
290.06
290.05
290.038
290.02
290.009
290.034
290.085
289.928
289.966
290.084
290.183
290.245
290.283
290.291
290.066
290.056
290.041
290.024
290.001
289.977
289.992
290.064
289.88
289.92
290.044
290.146
290.209
290.246
290.253
290.047
290.044
290.032
290.011
289.981
289.949
289.951
290.04
289.834
289.883
290.015
290.117
290.174
290.191
290.163
290
290.006
290.008
289.994
289.964
289.926
289.915
290.013
289.795
289.862
289.995
290.09
290.112
290.061
289.992
289.96
289.964
289.971
289.971
289.949
289.908
289.884
289.983
289.761
289.854
289.99
290.038
290.006
289.967
289.968
289.976
289.984
289.991
289.996
290
290.003
290.004
290.004
290.002
289.999
289.995
289.99
289.977
289.958
289.942
289.936
289.936
289.94
289.943
289.948
289.943
289.94
289.942
289.947
289.935
289.893
289.858
289.956
289.732
289.84
289.967
289.987
289.968
289.98
290.01
290.028
290.045
290.059
290.068
290.073
290.075
290.074
290.068
290.059
290.044
290.025
290.004
289.988
289.975
289.966
289.959
289.952
289.946
289.938
289.931
289.922
289.917
289.919
289.924
289.916
289.877
289.836
289.933
289.705
289.821
289.939
289.958
289.972
290.015
290.059
290.091
290.118
290.139
290.155
290.168
290.181
290.192
290.202
290.207
290.2
290.176
290.132
290.081
290.049
290.027
290.009
289.991
289.972
289.953
289.933
289.916
289.904
289.899
289.9
289.894
289.86
289.815
289.913
289.68
289.797
289.913
289.948
289.993
290.059
290.117
290.163
290.2
290.231
290.26
290.291
290.325
290.367
290.414
290.461
290.497
290.503
290.461
290.363
290.263
290.18
290.114
290.059
290.012
289.971
289.936
289.906
289.886
289.877
289.877
289.872
289.841
289.795
289.895
289.657
289.772
289.891
289.949
290.025
290.112
290.186
290.245
290.295
290.339
290.384
290.434
290.496
290.575
290.672
290.786
290.9
290.987
291.001
290.879
290.687
290.493
290.325
290.189
290.084
290.003
289.942
289.898
289.869
289.855
289.853
289.85
289.823
289.777
289.878
289.636
289.744
289.871
289.958
290.067
290.179
290.271
290.345
290.407
290.465
290.524
290.592
290.68
290.792
290.939
291.125
291.342
291.559
291.683
291.563
291.285
290.964
290.664
290.413
290.216
290.071
289.967
289.897
289.854
289.834
289.829
289.827
289.805
289.758
289.863
289.616
289.715
289.854
289.975
290.121
290.262
290.377
290.469
290.546
290.614
290.683
290.763
290.869
291.008
291.196
291.449
291.78
292.181
292.406
292.246
291.888
291.476
291.076
290.719
290.423
290.193
290.026
289.915
289.848
289.815
289.805
289.804
289.786
289.741
289.849
289.598
289.685
289.84
290
290.19
290.367
290.513
290.629
290.723
290.801
290.875
290.957
291.076
291.232
291.452
291.765
292.22
292.876
293.025
292.68
292.23
291.798
291.395
291.016
290.669
290.369
290.131
289.961
289.855
289.801
289.782
289.781
289.768
289.724
289.835
289.582
289.654
289.827
290.034
290.277
290.502
290.689
290.839
290.955
291.042
291.109
291.177
291.305
291.472
291.716
292.085
292.691
293.659
293.306
292.628
292.11
291.745
291.446
291.156
290.854
290.55
290.27
290.043
289.884
289.795
289.76
289.757
289.749
289.707
289.818
289.567
289.624
289.816
290.077
290.384
290.673
290.923
291.131
291.294
291.407
291.466
291.5
291.654
291.831
292.093
292.505
293.245
294.427
293.066
292.113
291.623
291.376
291.218
291.067
290.882
290.653
290.395
290.145
289.94
289.806
289.744
289.732
289.729
289.691
289.798
289.552
289.593
289.807
290.13
290.514
290.884
291.214
291.499
291.73
291.875
291.881
291.756
291.932
292.111
292.376
292.794
293.643
294.74
292.433
291.464
291.093
290.95
290.885
290.832
290.756
290.631
290.448
290.227
290.007
289.836
289.738
289.711
289.709
289.674
289.775
289.537
289.563
289.798
290.186
290.663
291.151
291.64
292.132
292.591
292.916
292.942
292.598
293.143
293.445
293.731
294.082
294.342
293.4
291.616
290.952
290.718
290.63
290.593
290.573
290.549
290.5
290.401
290.246
290.055
289.871
289.744
289.694
289.689
289.656
289.749
289.521
289.536
289.781
290.23
290.815
291.456
292.107
292.694
293.114
293.294
293.276
291.373
290.875
290.583
290.44
290.376
290.349
290.337
290.326
290.309
290.268
290.184
290.05
289.89
289.753
289.683
289.67
289.64
289.719
289.504
289.512
289.758
290.245
290.868
291.442
291.79
291.771
291.357
290.684
290.083
290.717
290.453
290.259
290.158
290.121
290.116
290.122
290.125
290.12
290.102
290.062
289.985
289.871
289.752
289.674
289.654
289.624
289.684
289.487
289.501
289.737
290.17
290.599
290.772
290.601
290.197
289.802
289.616
289.616
290.33
290.111
289.96
289.894
289.883
289.9
289.926
289.948
289.958
289.952
289.93
289.887
289.817
289.731
289.663
289.639
289.61
289.647
289.472
289.5
289.697
289.958
290.08
289.961
289.733
289.58
289.561
289.583
289.566
289.953
289.789
289.705
289.686
289.7
289.729
289.764
289.795
289.817
289.823
289.813
289.788
289.747
289.692
289.644
289.625
289.597
289.611
289.459
289.497
289.623
289.71
289.674
289.572
289.52
289.526
289.525
289.495
289.477
289.613
289.556
289.557
289.579
289.604
289.632
289.662
289.69
289.712
289.722
289.719
289.703
289.679
289.647
289.618
289.609
289.585
289.578
289.446
289.482
289.547
289.552
289.516
289.493
289.49
289.473
289.437
289.394
289.348
289.364
289.449
289.515
289.548
289.568
289.587
289.607
289.627
289.644
289.652
289.65
289.639
289.623
289.605
289.592
289.591
289.573
289.552
289.433
289.465
289.497
289.489
289.477
289.469
289.455
289.434
289.407
289.346
289.223
289.217
289.443
289.518
289.537
289.545
289.556
289.572
289.588
289.6
289.606
289.604
289.595
289.583
289.572
289.567
289.572
289.561
289.529
289.423
289.452
289.47
289.466
289.46
289.452
289.446
289.442
289.432
289.38
289.149
289.158
289.473
289.516
289.517
289.521
289.532
289.547
289.561
289.571
289.575
289.572
289.563
289.553
289.546
289.546
289.554
289.547
289.511
289.415
289.443
289.455
289.452
289.445
289.437
289.434
289.435
289.441
289.423
289.177
288.036
288.09
288.101
288.101
288.094
288.021
289.197
289.487
289.505
289.505
289.51
289.52
289.533
289.545
289.553
289.554
289.549
289.54
289.531
289.526
289.527
289.536
289.533
289.497
289.41
289.437
289.444
289.44
289.432
289.426
289.427
289.433
289.44
289.447
289.514
288.925
288.64
288.595
288.601
288.631
288.885
289.569
289.502
289.504
289.508
289.513
289.52
289.529
289.537
289.541
289.539
289.531
289.522
289.514
289.511
289.513
289.52
289.52
289.485
289.408
289.432
289.437
289.433
289.429
289.433
289.442
289.454
289.463
289.464
289.444
289.449
289.415
289.303
289.309
289.441
289.495
289.486
289.512
289.519
289.521
289.521
289.524
289.529
289.533
289.533
289.527
289.518
289.509
289.502
289.499
289.501
289.507
289.507
289.475
289.406
289.43
289.433
289.432
289.434
289.442
289.454
289.468
289.477
289.478
289.472
289.448
289.371
289.29
289.328
289.418
289.49
289.516
289.523
289.528
289.53
289.529
289.53
289.531
289.531
289.526
289.517
289.507
289.499
289.493
289.491
289.493
289.497
289.495
289.466
289.404
289.429
289.433
289.435
289.441
289.452
289.467
289.482
289.491
289.49
289.48
289.456
289.399
289.378
289.421
289.465
289.502
289.519
289.529
289.536
289.539
289.538
289.537
289.535
289.531
289.522
289.51
289.499
289.491
289.486
289.485
289.486
289.489
289.485
289.457
289.404
289.431
289.435
289.44
289.449
289.463
289.479
289.495
289.504
289.504
289.493
289.472
289.441
289.446
289.473
289.494
289.512
289.526
289.535
289.542
289.546
289.547
289.545
289.541
289.533
289.522
289.508
289.495
289.486
289.481
289.48
289.481
289.483
289.477
289.447
289.405
289.434
289.441
289.448
289.46
289.476
289.493
289.509
289.519
289.519
289.508
289.489
289.468
289.475
289.489
289.504
289.519
289.531
289.541
289.548
289.553
289.556
289.555
289.55
289.541
289.527
289.512
289.497
289.485
289.479
289.478
289.478
289.478
289.469
289.439
289.408
289.44
289.449
289.461
289.477
289.495
289.511
289.526
289.537
289.539
289.529
289.513
289.494
289.495
289.505
289.518
289.53
289.54
289.548
289.555
289.562
289.566
289.567
289.562
289.553
289.539
289.523
289.506
289.492
289.483
289.478
289.477
289.475
289.461
289.438
289.484
289.475
289.487
289.5
289.516
289.53
289.543
289.554
289.564
289.569
289.559
289.546
289.529
289.526
289.531
289.538
289.545
289.551
289.557
289.566
289.575
289.582
289.583
289.58
289.572
289.56
289.546
289.529
289.514
289.501
289.492
289.487
289.481
289.464
289.469
289.68
289.641
289.631
289.629
289.632
289.635
289.637
289.638
289.636
289.623
289.602
289.584
289.571
289.564
289.56
289.559
289.558
289.559
289.566
289.582
289.599
289.611
289.616
289.615
289.611
289.605
289.598
289.589
289.579
289.57
289.562
289.553
289.541
289.525
289.536
)
;

boundaryField
{
    floor
    {
        type            empty;
    }
    ceiling
    {
        type            empty;
    }
    fixedWalls
    {
        type            zeroGradient;
    }
    rack2796428BA49E0232CAC645AEBC8DA5C1_fixedWall
    {
        type            zeroGradient;
    }
    rack2796428BA49E0232CAC645AEBC8DA5C1_inlet
    {
        type            fixedValue;
        value           uniform 288.15;
    }
    rack2796428BA49E0232CAC645AEBC8DA5C1_outlet
    {
        type            zeroGradient;
    }
    acu380F56D59CF2B3DF6EFF9D0E6E8D39CB_fixedWall
    {
        type            zeroGradient;
    }
}


// ************************************************************************* //
