/*--------------------------------*- C++ -*----------------------------------*\
| =========                 |                                                 |
| \\      /  F ield         | OpenFOAM: The Open Source CFD Toolbox           |
|  \\    /   O peration     | Version:  2.3.1                                 |
|   \\  /    A nd           | Web:      www.OpenFOAM.org                      |
|    \\/     M anipulation  |                                                 |
\*---------------------------------------------------------------------------*/
FoamFile
{
    version     2.0;
    format      ascii;
    class       volScalarField;
    location    "6";
    object      T;
}
// * * * * * * * * * * * * * * * * * * * * * * * * * * * * * * * * * * * * * //

dimensions      [0 0 0 1 0 0 0];

internalField   nonuniform List<scalar> 
1227
(
290.201
290.203
290.216
290.301
290.335
290.329
290.324
290.318
290.313
290.309
290.305
290.301
290.296
290.292
290.287
290.282
290.278
290.274
290.27
290.267
290.264
290.259
290.255
290.251
290.248
290.244
290.239
290.233
290.226
290.218
290.211
290.206
290.201
290.198
290.195
290.164
290.182
290.239
290.314
290.335
290.326
290.317
290.31
290.304
290.298
290.292
290.286
290.28
290.275
290.272
290.268
290.265
290.262
290.258
290.253
290.248
290.242
290.236
290.23
290.225
290.219
290.214
290.208
290.2
290.192
290.187
290.184
290.185
290.186
290.189
290.119
290.164
290.255
290.323
290.336
290.328
290.323
290.323
290.319
290.314
290.308
290.301
290.296
290.291
290.287
290.282
290.277
290.272
290.267
290.263
290.26
290.257
290.255
290.253
290.247
290.236
290.214
290.184
290.165
290.155
290.15
290.148
290.149
290.152
290.156
290.069
290.135
290.251
290.323
290.338
290.334
290.331
290.137
290.128
290.118
290.112
290.111
290.113
290.121
290.13
290.013
290.094
290.234
290.317
290.339
290.339
290.338
290.094
290.097
290.091
290.08
290.073
290.071
290.085
290.107
289.952
290.044
290.204
290.3
290.334
290.339
290.336
290.072
290.075
290.07
290.058
290.042
290.028
290.043
290.083
289.891
289.988
290.163
290.272
290.318
290.33
290.326
290.07
290.063
290.056
290.044
290.022
289.992
289.997
290.058
289.836
289.936
290.119
290.236
290.291
290.311
290.304
290.066
290.059
290.048
290.033
290.008
289.966
289.951
290.028
289.793
289.903
290.08
290.198
290.256
290.281
290.271
290.038
290.041
290.038
290.024
289.996
289.947
289.912
289.995
289.762
289.897
290.062
290.173
290.225
290.22
290.152
289.976
289.985
289.999
290.004
289.984
289.936
289.883
289.961
289.743
289.912
290.065
290.151
290.134
290.039
289.965
289.944
289.946
289.954
289.967
289.965
289.928
289.863
289.93
289.728
289.928
290.055
290.063
290.008
289.981
289.992
289.994
289.998
290.001
290.003
290.004
290.003
290.002
289.999
289.994
289.991
289.989
289.99
289.981
289.966
289.95
289.94
289.936
289.936
289.937
289.94
289.941
289.938
289.935
289.938
289.944
289.92
289.85
289.904
289.713
289.921
290.014
290
289.99
290.015
290.033
290.037
290.042
290.045
290.048
290.049
290.051
290.053
290.053
290.05
290.039
290.019
289.997
289.988
289.979
289.973
289.968
289.966
289.964
289.961
289.957
289.953
289.941
289.927
289.92
289.923
289.907
289.837
289.882
289.697
289.907
289.986
289.991
290.022
290.06
290.079
290.09
290.102
290.115
290.132
290.154
290.185
290.224
290.27
290.313
290.34
290.332
290.273
290.177
290.118
290.085
290.065
290.05
290.036
290.021
290.004
289.985
289.961
289.934
289.914
289.907
289.892
289.823
289.864
289.679
289.894
289.982
290.016
290.067
290.107
290.131
290.153
290.177
290.206
290.246
290.302
290.377
290.477
290.6
290.739
290.873
290.973
290.995
290.884
290.725
290.573
290.442
290.33
290.235
290.156
290.089
290.033
289.984
289.941
289.908
289.891
289.875
289.809
289.847
289.661
289.886
289.996
290.055
290.116
290.159
290.192
290.225
290.263
290.31
290.373
290.458
290.573
290.724
290.916
291.145
291.398
291.654
291.858
291.837
291.655
291.401
291.129
290.865
290.625
290.419
290.251
290.121
290.023
289.952
289.902
289.875
289.857
289.795
289.832
289.643
289.88
290.019
290.1
290.169
290.219
290.261
290.305
290.355
290.416
290.494
290.598
290.736
290.916
291.148
291.441
291.804
292.226
292.612
292.652
292.479
292.202
291.873
291.519
291.163
290.826
290.528
290.285
290.103
289.979
289.901
289.859
289.838
289.779
289.818
289.625
289.876
290.051
290.152
290.23
290.287
290.34
290.393
290.451
290.518
290.602
290.711
290.857
291.048
291.299
291.639
292.12
292.763
293.17
293.084
292.843
292.581
292.308
292.006
291.664
291.289
290.906
290.551
290.258
290.046
289.914
289.846
289.819
289.764
289.803
289.607
289.874
290.089
290.213
290.301
290.369
290.431
290.491
290.552
290.62
290.701
290.806
290.951
291.142
291.403
291.787
292.414
293.373
293.42
292.972
292.582
292.339
292.182
292.04
291.858
291.6
291.263
290.878
290.498
290.18
289.961
289.843
289.798
289.747
289.785
289.589
289.876
290.138
290.288
290.389
290.467
290.537
290.602
290.663
290.724
290.792
290.883
291.024
291.21
291.473
291.904
292.742
294.037
293.199
292.343
291.866
291.664
291.606
291.608
291.611
291.557
291.403
291.129
290.764
290.381
290.063
289.862
289.78
289.728
289.766
289.57
289.881
290.2
290.384
290.505
290.6
290.684
290.757
290.82
290.872
290.921
290.991
291.134
291.316
291.583
292.054
293.12
294.55
292.567
291.543
291.123
290.99
290.986
291.04
291.124
291.207
291.239
291.16
290.935
290.591
290.216
289.922
289.773
289.708
289.743
289.551
289.893
290.283
290.514
290.665
290.784
290.885
290.971
291.036
291.071
291.065
291.049
291.185
291.356
291.613
292.079
293.368
294.382
291.812
290.902
290.612
290.543
290.561
290.618
290.7
290.802
290.909
290.972
290.923
290.715
290.376
290.021
289.789
289.689
289.717
289.531
289.916
290.391
290.68
290.874
291.045
291.223
291.407
291.558
291.611
291.505
291.345
291.578
291.769
292.028
292.527
293.584
292.56
291.012
290.451
290.267
290.227
290.252
290.313
290.392
290.484
290.588
290.694
290.757
290.7
290.476
290.132
289.831
289.678
289.688
289.511
289.947
290.53
290.928
291.277
291.677
292.125
292.539
292.818
292.903
292.827
290.806
290.355
290.078
289.956
289.927
289.954
290.016
290.103
290.203
290.309
290.418
290.519
290.564
290.472
290.209
289.887
289.679
289.658
289.494
289.995
290.761
291.395
291.985
292.481
292.694
292.475
291.829
290.945
290.196
290.219
289.921
289.739
289.671
289.668
289.699
289.755
289.833
289.932
290.044
290.159
290.272
290.362
290.37
290.217
289.931
289.689
289.63
289.492
290.095
291.095
291.877
292.284
292.168
291.535
290.657
289.916
289.563
289.539
289.727
289.562
289.496
289.497
289.523
289.557
289.598
289.65
289.721
289.815
289.924
290.038
290.143
290.207
290.151
289.939
289.7
289.606
289.508
290.207
291.249
291.732
291.486
290.762
290.015
289.589
289.493
289.493
289.44
289.368
289.352
289.396
289.449
289.489
289.518
289.543
289.57
289.608
289.664
289.743
289.839
289.941
290.025
290.035
289.905
289.701
289.588
289.523
290.187
290.923
290.874
290.272
289.705
289.459
289.425
289.394
289.321
289.273
289.186
289.301
289.414
289.48
289.511
289.525
289.536
289.548
289.566
289.594
289.638
289.701
289.779
289.859
289.9
289.838
289.688
289.574
289.515
289.985
290.286
289.98
289.565
289.402
289.39
289.365
289.312
289.244
289.152
289.121
289.35
289.477
289.52
289.527
289.526
289.526
289.531
289.543
289.561
289.587
289.624
289.673
289.732
289.777
289.757
289.662
289.561
289.488
289.727
289.752
289.518
289.394
289.402
289.41
289.402
289.378
289.297
289.107
289.119
289.434
289.525
289.534
289.525
289.516
289.512
289.514
289.523
289.537
289.557
289.581
289.612
289.65
289.683
289.682
289.629
289.549
289.459
289.549
289.498
289.412
289.418
289.442
289.454
289.467
289.466
289.409
289.127
289.148
289.498
289.539
289.531
289.521
289.514
289.51
289.51
289.515
289.524
289.539
289.557
289.578
289.6
289.62
289.622
289.597
289.536
289.442
289.473
289.435
289.423
289.44
289.449
289.458
289.472
289.484
289.469
289.218
288.03
288.092
288.104
288.103
288.098
288.019
289.229
289.521
289.535
289.53
289.526
289.523
289.519
289.517
289.518
289.523
289.533
289.545
289.558
289.57
289.579
289.579
289.568
289.522
289.434
289.452
289.433
289.433
289.44
289.449
289.462
289.475
289.483
289.49
289.568
288.945
288.64
288.592
288.606
288.627
288.886
289.61
289.531
289.53
289.533
289.534
289.532
289.528
289.525
289.523
289.526
289.532
289.539
289.545
289.55
289.552
289.549
289.544
289.509
289.428
289.445
289.433
289.435
289.447
289.465
289.483
289.495
289.502
289.502
289.482
289.496
289.505
289.432
289.462
289.552
289.541
289.51
289.531
289.536
289.539
289.54
289.538
289.535
289.531
289.528
289.529
289.531
289.534
289.535
289.535
289.531
289.526
289.526
289.497
289.424
289.439
289.433
289.441
289.459
289.477
289.492
289.503
289.51
289.511
289.508
289.493
289.439
289.382
289.426
289.481
289.518
289.53
289.533
289.537
289.54
289.543
289.543
289.54
289.536
289.532
289.531
289.53
289.529
289.526
289.521
289.515
289.509
289.511
289.485
289.421
289.434
289.435
289.45
289.47
289.487
289.501
289.513
289.52
289.519
289.51
289.493
289.457
289.45
289.48
289.501
289.516
289.526
289.534
289.539
289.543
289.546
289.547
289.545
289.541
289.536
289.533
289.529
289.523
289.517
289.509
289.502
289.497
289.499
289.475
289.419
289.434
289.442
289.46
289.479
289.495
289.509
289.521
289.529
289.528
289.518
289.499
289.474
289.48
289.493
289.505
289.519
289.53
289.537
289.542
289.546
289.549
289.551
289.551
289.547
289.541
289.535
289.528
289.519
289.51
289.5
289.492
289.488
289.49
289.464
289.42
289.438
289.451
289.471
289.489
289.505
289.519
289.531
289.539
289.539
289.527
289.508
289.489
289.493
289.502
289.512
289.525
289.535
289.542
289.547
289.55
289.553
289.556
289.556
289.554
289.548
289.541
289.531
289.52
289.507
289.495
289.486
289.482
289.483
289.455
289.42
289.446
289.463
289.484
289.502
289.517
289.53
289.543
289.553
289.555
289.545
289.528
289.509
289.508
289.516
289.526
289.536
289.544
289.549
289.552
289.555
289.559
289.562
289.564
289.562
289.558
289.55
289.54
289.526
289.511
289.496
289.485
289.479
289.477
289.456
289.474
289.463
289.484
289.503
289.519
289.533
289.547
289.56
289.573
289.58
289.571
289.558
289.541
289.537
289.54
289.546
289.551
289.554
289.555
289.558
289.564
289.57
289.575
289.576
289.575
289.571
289.564
289.554
289.54
289.524
289.506
289.491
289.482
289.48
289.483
289.662
289.595
289.584
289.59
289.598
289.606
289.613
289.621
289.627
289.625
289.61
289.596
289.584
289.576
289.571
289.567
289.564
289.561
289.56
289.567
289.584
289.602
289.609
289.61
289.607
289.602
289.596
289.588
289.579
289.568
289.555
289.545
289.542
289.539
289.536
)
;

boundaryField
{
    floor
    {
        type            empty;
    }
    ceiling
    {
        type            empty;
    }
    fixedWalls
    {
        type            zeroGradient;
    }
    rack2796428BA49E0232CAC645AEBC8DA5C1_fixedWall
    {
        type            zeroGradient;
    }
    rack2796428BA49E0232CAC645AEBC8DA5C1_inlet
    {
        type            fixedValue;
        value           uniform 288.15;
    }
    rack2796428BA49E0232CAC645AEBC8DA5C1_outlet
    {
        type            zeroGradient;
    }
    acu380F56D59CF2B3DF6EFF9D0E6E8D39CB_fixedWall
    {
        type            zeroGradient;
    }
}


// ************************************************************************* //
