/*--------------------------------*- C++ -*----------------------------------*\
| =========                 |                                                 |
| \\      /  F ield         | OpenFOAM: The Open Source CFD Toolbox           |
|  \\    /   O peration     | Version:  2.3.1                                 |
|   \\  /    A nd           | Web:      www.OpenFOAM.org                      |
|    \\/     M anipulation  |                                                 |
\*---------------------------------------------------------------------------*/
FoamFile
{
    version     2.0;
    format      ascii;
    class       volScalarField;
    location    "600";
    object      alphat;
}
// * * * * * * * * * * * * * * * * * * * * * * * * * * * * * * * * * * * * * //

dimensions      [0 2 -1 0 0 0 0];

internalField   nonuniform List<scalar> 
6852
(
0.00587974
0.00552083
0.00518469
0.00488425
0.00462996
0.00442634
0.00269135
0.00253864
0.00240545
0.00229154
0.0021988
0.00212644
0.00233473
0.00222882
0.00214143
0.0020712
0.00201656
0.00207014
0.00199357
0.00192982
0.00187864
0.00183868
0.00200813
0.00193787
0.00187472
0.0018217
0.00177807
0.00222022
0.0021493
0.00208832
0.00203936
0.00200123
0.00245917
0.00239225
0.00233674
0.00229362
0.00226127
0.00272646
0.00266701
0.00261926
0.00258292
0.00255626
0.00302454
0.00297421
0.00293456
0.00290447
0.0028825
0.00335224
0.00331249
0.00328139
0.00325743
0.00323974
0.00371592
0.0036882
0.00366624
0.00364851
0.00363499
0.00413147
0.00411584
0.00410272
0.00409085
0.00408109
0.00458495
0.00458356
0.0045806
0.00457539
0.0045698
0.005044
0.00505857
0.00506717
0.00506985
0.00506921
0.00545524
0.00548109
0.00549815
0.00550812
0.00551226
0.0057392
0.00577701
0.00580357
0.00582136
0.00583074
0.00588948
0.00593814
0.00597347
0.00599832
0.0060124
0.00591639
0.00597369
0.00601606
0.00604633
0.00606389
0.00584246
0.00590588
0.00595314
0.00598688
0.00600632
0.00569596
0.00576335
0.00581356
0.00584893
0.00586865
0.00550534
0.00557539
0.00562729
0.00566296
0.00568161
0.00529528
0.00536784
0.00542105
0.00545638
0.00547306
0.00508464
0.00516074
0.00521585
0.00525097
0.00526528
0.00488584
0.00496761
0.00502607
0.00506177
0.0050738
0.00470516
0.00479558
0.00485953
0.00489715
0.0049075
0.00454151
0.00464535
0.00471778
0.00475897
0.00476881
0.00439142
0.00451108
0.00459627
0.00464311
0.00465449
0.00462615
0.00424605
0.00438394
0.00448238
0.00453767
0.00455409
0.00452427
0.00409377
0.00424964
0.00435918
0.00442361
0.00445172
0.00442702
0.00391807
0.00408487
0.00419699
0.00426328
0.00431654
0.00431131
0.00370434
0.003867
0.00395811
0.0040016
0.00411214
0.00415597
0.00344155
0.00356811
0.00358907
0.00357258
0.00378288
0.00393258
0.00312603
0.00317225
0.00301828
0.00287484
0.00326191
0.00362321
0.00283114
0.00282053
0.00278252
0.00294918
0.00305968
0.00341857
0.00266687
0.00275517
0.00286386
0.00305861
0.00324632
0.00350848
0.00261701
0.0027222
0.00284028
0.00300379
0.00321382
0.00348815
0.00252996
0.00260626
0.00268619
0.00279998
0.00300795
0.00331959
0.00238354
0.00241025
0.00243674
0.0025097
0.00268441
0.00302769
0.00221894
0.00219674
0.00216683
0.00221031
0.0023284
0.00268703
0.00211462
0.00205502
0.00197077
0.00197621
0.00204641
0.00237709
0.00452406
0.00432219
0.00398534
0.00379305
0.00395993
0.0046124
0.00261894
0.00246266
0.0023219
0.00220013
0.0020989
0.00201933
0.00215249
0.00219323
0.00223158
0.00226333
0.00229049
0.00231306
0.00246352
0.00253203
0.00258832
0.00263408
0.00266978
0.00269799
0.00253608
0.00262605
0.00270098
0.00275826
0.00280264
0.00365135
0.00389676
0.00408956
0.00424349
0.00436898
0.00561263
0.00592021
0.00615432
0.00633111
0.0064717
0.00715481
0.00747418
0.0077068
0.00787591
0.00800739
0.00806831
0.00837863
0.00859862
0.00875508
0.00887494
0.00846736
0.00875855
0.00896261
0.00910629
0.00921506
0.00838864
0.00865417
0.0088408
0.00897263
0.00907183
0.00777354
0.00801299
0.00818342
0.00830453
0.00839519
0.0067451
0.00695014
0.00709903
0.00720622
0.00728659
0.00571378
0.00587556
0.00599576
0.00608407
0.00615074
0.00484894
0.00496834
0.00505859
0.00512638
0.00517819
0.00418065
0.00421269
0.00423971
0.00427219
0.0043002
0.00353809
0.00355158
0.00356567
0.00358466
0.00360176
0.00317466
0.00319227
0.00320818
0.00322394
0.00323715
0.00300537
0.00302862
0.00304771
0.00306336
0.00307548
0.00293506
0.00296293
0.00298491
0.0030016
0.00301393
0.00291062
0.00294175
0.00296589
0.00298375
0.00299678
0.00290602
0.00293913
0.00296457
0.00298335
0.00299709
0.0029098
0.00294389
0.00296992
0.00298922
0.00300346
0.00291778
0.00295223
0.00297834
0.00299782
0.0030123
0.00292892
0.00296343
0.00298936
0.0030088
0.00302329
0.0029432
0.00297767
0.00300334
0.00302265
0.00303708
0.00296097
0.00299539
0.00302085
0.00304007
0.00305451
0.00298367
0.00301874
0.00304437
0.00306383
0.00307837
0.00301451
0.00305319
0.00308083
0.00310151
0.00311583
0.00312336
0.00306063
0.00311352
0.00315062
0.00317581
0.00318828
0.00318752
0.00312859
0.00321411
0.00327729
0.00331577
0.00332191
0.00330033
0.0032319
0.0033937
0.00351824
0.00359451
0.00358031
0.00351271
0.00335689
0.00363501
0.0038642
0.00401395
0.00396236
0.00381866
0.00344739
0.00380496
0.00415076
0.00449112
0.00427682
0.00406603
0.00347017
0.00386726
0.00443578
0.00484652
0.00452913
0.00419394
0.0034658
0.00388326
0.00451328
0.00460747
0.00433994
0.00417393
0.00348536
0.00381115
0.00446021
0.004373
0.0037982
0.00374242
0.00361361
0.00375913
0.00452228
0.00422583
0.00335332
0.00321051
0.00385495
0.00383622
0.00448151
0.00405774
0.00315762
0.00290689
0.0037072
0.00354554
0.00389549
0.00366283
0.00304969
0.0028158
0.00289202
0.00275979
0.00307454
0.00310121
0.00274912
0.002651
0.00231608
0.0022601
0.00208551
0.00190031
0.00216952
0.00266151
0.0026589
0.00249581
0.00235274
0.00223213
0.00213349
0.00205707
0.00221214
0.00226341
0.00230517
0.00233722
0.002363
0.0023833
0.00228757
0.00229372
0.00230222
0.00231417
0.00232446
0.00233356
0.00177704
0.00181645
0.00185668
0.00189515
0.00192428
0.00194614
0.0029363
0.00322591
0.00343527
0.0036043
0.00373768
0.00617564
0.00658652
0.00686176
0.00705729
0.00720685
0.00932277
0.00972441
0.0099697
0.0101262
0.0102422
0.0113346
0.0117252
0.0119498
0.0120827
0.0121778
0.0123494
0.0127431
0.0129669
0.013096
0.0131851
0.0122508
0.0126505
0.0128858
0.013025
0.0131201
0.0105752
0.0109889
0.0112498
0.0114115
0.0115233
0.00861728
0.00898354
0.00922724
0.00938613
0.00950054
0.00731599
0.00763793
0.0078582
0.00801073
0.00812334
0.00654591
0.00683706
0.00703464
0.00717392
0.00727862
0.00608084
0.00633299
0.00650083
0.00662113
0.00671248
0.00572581
0.00593263
0.00606709
0.00616567
0.0062404
0.00540501
0.00548943
0.00552877
0.00556923
0.00560226
0.00500237
0.00499946
0.00498185
0.00498649
0.00499023
0.00463934
0.00459676
0.0045567
0.0045451
0.00453063
0.00435911
0.00430693
0.00426288
0.00424604
0.00421945
0.00415477
0.00410816
0.00406944
0.00405291
0.00401688
0.00400479
0.00397268
0.00394241
0.00392861
0.00388422
0.00388647
0.00387382
0.00385412
0.00384284
0.00379064
0.00377927
0.00378638
0.00377912
0.00377075
0.00371172
0.00366771
0.00369214
0.00369732
0.00369138
0.00362764
0.00354517
0.00358007
0.00359332
0.00358811
0.00352339
0.00340768
0.00344345
0.0034582
0.00345231
0.00339227
0.00326083
0.00328907
0.00329851
0.00329147
0.00324285
0.00312803
0.00315287
0.00315741
0.00315209
0.00311913
0.00309128
0.00304359
0.0030887
0.00310259
0.00310813
0.00308677
0.00306895
0.00306593
0.00322533
0.00331462
0.00336854
0.00333028
0.00326932
0.00323691
0.00366044
0.00394694
0.00412703
0.00400409
0.00380695
0.00346325
0.00417278
0.00477704
0.00527181
0.0048701
0.00443936
0.00366324
0.0045879
0.00563298
0.00646802
0.00566863
0.00493497
0.00379709
0.0048258
0.00625713
0.00663249
0.00577818
0.005069
0.00389796
0.00497708
0.00653917
0.00638992
0.00513251
0.00470771
0.00406017
0.00511307
0.00662793
0.0060266
0.00451017
0.00407608
0.00418185
0.00493917
0.00623004
0.00533939
0.00393757
0.00355003
0.00429965
0.00464275
0.00550229
0.00457538
0.00335927
0.00313675
0.00379519
0.00356974
0.00409208
0.00367109
0.00280744
0.00255505
0.00242189
0.00243031
0.00227926
0.00205819
0.00262536
0.00309589
0.00280638
0.00266257
0.00252454
0.0023951
0.00228601
0.00220152
0.00204093
0.00215497
0.00226017
0.00230276
0.00232361
0.00233911
0.0023814
0.00233269
0.00229071
0.00226588
0.00224831
0.00223728
0.00153705
0.001522
0.00151702
0.00152431
0.00152843
0.00153137
0.00178942
0.00212562
0.00239786
0.00258166
0.00274065
0.00286222
0.0060144
0.00654538
0.00685826
0.00707589
0.00723239
0.010431
0.0109059
0.0111362
0.0112598
0.0113409
0.0127668
0.0132124
0.0134042
0.0134858
0.0135321
0.0133846
0.0138322
0.0140317
0.0141169
0.0141638
0.0120012
0.0124412
0.0126684
0.0127838
0.0128539
0.00772235
0.00813547
0.00839542
0.00855063
0.00865535
0.00488717
0.00513567
0.005308
0.00542248
0.00550544
0.00401367
0.00422287
0.00437369
0.0044933
0.00458263
0.00379044
0.00402818
0.00418417
0.00430615
0.0043975
0.00388342
0.00416771
0.00434342
0.00447089
0.00456261
0.00412095
0.00447336
0.0046863
0.00483025
0.00492364
0.00440278
0.00483147
0.00509139
0.00525979
0.00535825
0.00466303
0.00516218
0.00546221
0.00565463
0.00575785
0.0048659
0.00541931
0.0057488
0.00596118
0.00606313
0.00499868
0.00559039
0.00594895
0.00617759
0.00627232
0.00505875
0.0056839
0.00606921
0.0063113
0.00639661
0.00505391
0.00570972
0.00612193
0.00637432
0.0064495
0.00500136
0.00567759
0.00611382
0.00637308
0.00643781
0.00492009
0.0055999
0.00605346
0.00631033
0.00636405
0.00482374
0.00548751
0.00594649
0.00618941
0.00623079
0.00471013
0.00534397
0.00579504
0.0060197
0.00604071
0.00455698
0.0051437
0.0055666
0.00577363
0.005768
0.00436907
0.00489266
0.0052662
0.00544688
0.00541894
0.00416141
0.00461586
0.00492161
0.00506765
0.00502754
0.00396958
0.00436858
0.00458725
0.00468942
0.00465473
0.00464658
0.00390624
0.00450529
0.0047659
0.00486185
0.00483715
0.00484642
0.00417626
0.00486919
0.00514932
0.00533078
0.00523878
0.00516726
0.00445275
0.00526882
0.00564922
0.00611168
0.00573958
0.00546749
0.00462594
0.00565785
0.00646424
0.0074726
0.00650567
0.00584924
0.00469165
0.00590472
0.00732357
0.00803379
0.00687225
0.00601528
0.0046993
0.00603391
0.00772819
0.00782349
0.00633256
0.00575021
0.00471292
0.00613992
0.00797267
0.00777961
0.00604833
0.00542666
0.0043357
0.00575221
0.00753182
0.00708462
0.00549666
0.00494599
0.00416826
0.00496836
0.00618519
0.00559221
0.004025
0.00367251
0.00393613
0.0041667
0.0047403
0.00435555
0.00310652
0.00271606
0.00242897
0.00252567
0.00246709
0.00227644
0.00277215
0.00322226
0.00278858
0.00266308
0.00253543
0.00241334
0.00230699
0.00222182
0.00204589
0.0020186
0.0020017
0.0019919
0.00198721
0.00198547
0.0024257
0.00239983
0.00236141
0.00231556
0.0022789
0.002252
0.00145591
0.00142928
0.001412
0.00141129
0.00140841
0.00140592
0.00150752
0.00171295
0.00194009
0.00208249
0.00221785
0.00231853
0.00508695
0.00617403
0.00683305
0.00718094
0.00742937
0.00759847
0.0119303
0.0124894
0.01268
0.0127564
0.0127904
0.0139915
0.0144713
0.0145925
0.0146026
0.0145863
0.0134183
0.013844
0.0139702
0.0139918
0.0139867
0.0099824
0.0103453
0.010515
0.0105913
0.0106323
0.00379988
0.00401996
0.00416475
0.00425375
0.00431459
0.00229631
0.00236031
0.00240629
0.0024377
0.00246106
0.00235087
0.00246488
0.00252761
0.00257195
0.00263194
0.00250685
0.00271661
0.00281235
0.00286906
0.00292019
0.00276004
0.00310129
0.00330792
0.00341009
0.00346115
0.00294494
0.00340496
0.00374846
0.00396109
0.0040751
0.00306724
0.00363843
0.00413739
0.00447693
0.00465615
0.00313364
0.0037888
0.00443195
0.00490236
0.00513897
0.00316131
0.00387525
0.00463148
0.00521294
0.00548481
0.00316081
0.00391185
0.00474369
0.00540334
0.00568332
0.00313832
0.003908
0.00478483
0.0054651
0.0057502
0.00309796
0.00386912
0.00476384
0.0054231
0.00570409
0.00304121
0.00379738
0.00467332
0.00530002
0.0055695
0.00297515
0.00369609
0.00453604
0.00512292
0.00537875
0.00290071
0.00356851
0.00438026
0.00492702
0.00517359
0.00282431
0.00342565
0.00418844
0.00476604
0.00501046
0.00275793
0.00328975
0.00398898
0.004585
0.00481263
0.0027071
0.0031835
0.0038181
0.00440352
0.004606
0.00267948
0.00311786
0.00367747
0.00421994
0.00439417
0.00272383
0.00325717
0.00380482
0.00429789
0.00445887
0.00300658
0.0037872
0.00431168
0.00477416
0.0049144
0.00487749
0.00360401
0.00493161
0.00565433
0.00619257
0.00625064
0.0061399
0.00402306
0.0057596
0.00686487
0.00765571
0.00740935
0.00708906
0.00435422
0.00632349
0.00793111
0.00937111
0.00839664
0.00759304
0.00457662
0.00669651
0.00897645
0.0103102
0.00896856
0.00777484
0.00469224
0.00686649
0.00947094
0.0101817
0.00840376
0.00745926
0.00494209
0.00697258
0.00919529
0.00949809
0.00751274
0.00668514
0.0048014
0.00617189
0.00757753
0.00766537
0.00596336
0.0052553
0.00415384
0.00486689
0.00598695
0.00603312
0.00446627
0.00375993
0.00384905
0.00382463
0.00422069
0.0043363
0.00340434
0.00299886
0.00249886
0.00258387
0.00252264
0.00238119
0.00269698
0.00316203
0.00566664
0.00542201
0.0051558
0.00489008
0.00464756
0.00444466
0.00252145
0.00240389
0.00228313
0.00216564
0.00205942
0.00197095
0.00239491
0.002264
0.00213471
0.00201121
0.00189879
0.00180285
0.00130873
0.00130912
0.00131064
0.00131406
0.00131488
0.0013149
0.00169153
0.00185294
0.00203749
0.00213441
0.00222687
0.00229143
0.00644233
0.00763247
0.00829284
0.00858883
0.00880256
0.0089414
0.0120841
0.0143884
0.015009
0.0151279
0.0151422
0.0151231
0.0156194
0.0161067
0.0161291
0.0160636
0.0159867
0.01339
0.0137105
0.0137244
0.0136751
0.013618
0.00768604
0.0079128
0.0080042
0.00804157
0.00805802
0.00176029
0.00181317
0.0018469
0.001869
0.00188342
0.00202062
0.00204519
0.00205542
0.00205847
0.00206078
0.00227394
0.00224025
0.00215214
0.00202058
0.0019432
0.00290689
0.00254072
0.00221045
0.00191589
0.00168966
0.00311611
0.00271584
0.00235484
0.0020165
0.0017374
0.00311572
0.0026877
0.00230176
0.00194806
0.00165082
0.00309149
0.00266793
0.00228964
0.00193966
0.00160846
0.00308598
0.00268351
0.00232199
0.00198679
0.00168085
0.00309963
0.00272505
0.00238705
0.00207451
0.00181715
0.00313281
0.00278971
0.00247821
0.00219159
0.0019866
0.00318594
0.00287622
0.00259263
0.00233533
0.00217819
0.00325965
0.00298482
0.00273016
0.00250072
0.00239149
0.00335474
0.00311713
0.00289268
0.00269143
0.00262598
0.00347388
0.00327628
0.00308537
0.00291432
0.00288467
0.00361873
0.00346699
0.00331686
0.00317958
0.00317676
0.00379012
0.00369363
0.00359162
0.00349915
0.00351391
0.00399119
0.00396598
0.00392433
0.00388383
0.00390727
0.00421722
0.00427807
0.00430871
0.00432794
0.00435274
0.00448331
0.00467986
0.00481544
0.00491136
0.004934
0.00474917
0.00504325
0.0052663
0.00545184
0.00547323
0.00510493
0.00582925
0.00628311
0.00660862
0.00662913
0.00560211
0.00624835
0.00634083
0.00655168
0.00656788
0.00660632
0.00571978
0.00651128
0.00728347
0.00791997
0.00772078
0.00751461
0.00564434
0.00677485
0.00827734
0.00968964
0.00880918
0.00805964
0.00546613
0.00698338
0.00937712
0.0109368
0.00955429
0.00827283
0.00519993
0.00717882
0.00992906
0.0107117
0.00915426
0.00810418
0.00456023
0.00704941
0.00873312
0.00885104
0.00768509
0.00724298
0.00334114
0.00422826
0.00492182
0.00530792
0.00508169
0.00492165
0.002744
0.00301683
0.00328806
0.00354553
0.00351357
0.00361312
0.00247633
0.00265631
0.00275226
0.00287211
0.00299876
0.00323706
0.0051872
0.00532089
0.00516601
0.0050266
0.00537794
0.00618285
0.00120669
0.00120219
0.00120069
0.00119955
0.00119873
0.00119826
0.00296197
0.00310148
0.00323801
0.00329573
0.00335191
0.00339005
0.0103679
0.0117881
0.0122864
0.0124397
0.0125424
0.0126025
0.0151481
0.017952
0.0185357
0.0185784
0.0185479
0.0185018
0.0155466
0.0181489
0.0185932
0.0185437
0.0184469
0.0183535
0.0147258
0.0149184
0.0148405
0.0147503
0.0146681
0.00603517
0.00612408
0.00614237
0.00614648
0.00614371
0.00122704
0.00122943
0.00123084
0.00123178
0.00123262
0.0137626
0.00674072
0.00689988
0.00690517
0.00673706
0.00738587
0.00801957
0.00783765
0.00761785
0.00674407
0.00837709
0.00977284
0.00894686
0.00816535
0.00675447
0.00942476
0.0109689
0.00965112
0.00835434
0.00687594
0.00989286
0.0106702
0.00921228
0.00816784
0.0142984
0.00776913
0.00771562
0.00721366
0.00707914
0.000858873
0.000858587
0.000858341
0.000858182
0.000858017
0.000857911
0.00840952
0.0085414
0.00858339
0.00858856
0.00859438
0.00859613
0.0171643
0.0184957
0.0187534
0.0188009
0.0188256
0.0188363
0.0194451
0.0214764
0.021813
0.0218298
0.0218168
0.0217993
0.0192881
0.0211583
0.0214078
0.0213739
0.0213295
0.0212919
0.0174342
0.0186517
0.0187357
0.0186711
0.0186181
0.0185769
0.00883968
0.00884817
0.00883017
0.00881818
0.0088067
0.00085562
0.000855727
0.000855778
0.000855743
0.000855738
0.0187875
0.00875071
0.00887361
0.00888289
0.00874105
0.00746424
0.00807413
0.00789459
0.00870504
0.0084481
0.00983175
0.00906524
0.00820621
0.00872762
0.00946946
0.010976
0.00976761
0.00841155
0.0089261
0.00978706
0.0105401
0.00923751
0.00820564
0.0194527
0.00988125
0.0098173
0.0092661
0.00911637
0.00256503
0.00265306
0.00268715
0.00267418
0.00262231
0.00253913
0.00120715
0.00125582
0.00128179
0.00128566
0.0012697
0.00123691
0.00252864
0.00259748
0.00262382
0.00261235
0.00256747
0.00249361
0.00189117
0.00175474
0.00163464
0.00149652
0.00132143
0.00109881
0.00104431
0.000995943
0.000942527
0.000875025
0.00122506
0.00118622
0.00114868
0.00110407
0.00104528
0.0013134
0.0012829
0.00125061
0.0012097
0.00115406
0.00138473
0.00136063
0.00133264
0.00129425
0.00123986
0.00144028
0.00142107
0.00139719
0.00136023
0.00130641
0.00147667
0.00145861
0.00143562
0.00140124
0.00135223
0.00148725
0.00146021
0.00143994
0.00141193
0.001373
0.00146256
0.00141317
0.00140016
0.00138492
0.00136552
0.00140456
0.00125069
0.00122079
0.00118074
0.00116616
0.00134342
0.000950645
0.000888573
0.000867194
0.000860151
0.0012565
0.000749825
0.000735283
0.00073461
0.000734635
0.00278365
0.00289704
0.00299857
0.00314697
0.00338948
0.00380769
0.00470335
0.00713304
0.00696095
0.0261819
0.0140437
0.0130751
0.0130992
0.00672738
0.0109764
0.00750146
0.00790395
0.00773412
0.006286
0.00978948
0.00830866
0.00965003
0.00897632
0.00605969
0.00977985
0.00926278
0.0107087
0.00966025
0.00561077
0.0104265
0.00949907
0.0101257
0.0090271
0.00811109
0.00593945
0.0223516
0.0111957
0.0107554
0.0102738
0.0105045
0.00350298
0.00619707
0.00626645
0.00635094
0.00623406
0.00621963
0.00231511
0.00288855
0.00319299
0.00337164
0.00337235
0.00328597
0.00178522
0.00183555
0.00186337
0.00193454
0.00198696
0.00207984
0.00341974
0.00342365
0.00331373
0.00331047
0.00361983
0.00395175
0.00122842
0.00128761
0.00132427
0.00133852
0.0013322
0.00130798
0.001455
0.00136587
0.00129269
0.001241
0.00120655
0.00118316
0.0012018
0.00124267
0.00126953
0.00128181
0.00127948
0.00126297
0.000953915
0.000892195
0.000827423
0.000761868
0.00068385
0.00166563
0.00169955
0.00170806
0.00169045
0.00164955
0.00220702
0.00222966
0.0022222
0.00218394
0.00212002
0.00261552
0.00259519
0.00254797
0.0024755
0.0023846
0.00286218
0.00278735
0.00269094
0.0025792
0.00246228
0.00297746
0.00284681
0.00269632
0.00251524
0.0023519
0.00300701
0.00281591
0.00257393
0.00235245
0.00217509
0.00299575
0.00274593
0.00247431
0.00224773
0.00206837
0.00298106
0.00276291
0.00246248
0.00221873
0.00202248
0.00301799
0.0026337
0.0021094
0.00179244
0.00163104
0.002955
0.00222524
0.00185523
0.00180639
0.00179708
0.00251089
0.00305873
0.00424746
0.00454675
0.00458349
0.00136548
0.00136159
0.00137777
0.00141733
0.00148617
0.00160778
0.00195503
0.00361
0.0117601
0.0307387
0.0192553
0.0171475
0.0171923
0.0108478
0.0127726
0.00790824
0.00787767
0.00772717
0.009664
0.0100946
0.00830052
0.00950797
0.00888801
0.00907019
0.00997567
0.00920206
0.0105221
0.00956596
0.00912494
0.0111109
0.00950746
0.00997609
0.00896988
0.0106666
0.0225525
0.0116713
0.0108248
0.0103922
0.0110379
0.00512856
0.0110561
0.0100099
0.00944801
0.00932945
0.00987786
0.00217545
0.00320322
0.00369953
0.00395954
0.00375848
0.00345944
0.00196694
0.00189951
0.00213573
0.00244537
0.00210665
0.00178956
0.00160045
0.00160142
0.00152176
0.00151842
0.00173882
0.00190838
0.00130498
0.00136173
0.00140245
0.00142516
0.00142963
0.00141673
0.00159633
0.00146261
0.00135881
0.00127977
0.001221
0.00117768
0.00123841
0.00127776
0.0013109
0.00133473
0.00134685
0.00134574
0.00126015
0.00119945
0.001131
0.00105239
0.000953255
0.000844324
0.00196972
0.00198964
0.00197987
0.00194406
0.00188715
0.00285963
0.00286838
0.0028375
0.00276885
0.00267104
0.00365317
0.00362258
0.00354972
0.00343589
0.00329081
0.00423851
0.00416143
0.00404177
0.00388484
0.00370145
0.00464294
0.00451906
0.00434661
0.00414331
0.00391005
0.00493256
0.00476611
0.00450759
0.00420223
0.00389508
0.00517061
0.00490711
0.00450221
0.00409061
0.00371828
0.00530027
0.00481444
0.00413906
0.00355925
0.00315762
0.00517083
0.00390848
0.00293451
0.00242024
0.00216768
0.00468409
0.00306877
0.00273856
0.00282515
0.00287097
0.00357635
0.00363497
0.00572533
0.00634121
0.00640322
0.00143139
0.00139934
0.00140128
0.00143075
0.00148933
0.00159785
0.00203353
0.0042419
0.0153301
0.0339487
0.0251359
0.0221471
0.0222113
0.0140753
0.0147728
0.0088764
0.00819882
0.00808395
0.0123352
0.0105281
0.00833915
0.00934938
0.00877684
0.0115057
0.0102137
0.00917028
0.0103503
0.00947601
0.0117969
0.0118376
0.0095843
0.00986741
0.00894079
0.0134291
0.0223618
0.0121931
0.0109376
0.0105341
0.00756234
0.0140355
0.0126599
0.0117235
0.011608
0.0124584
0.00326055
0.00526248
0.00576324
0.00590357
0.005755
0.00563463
0.00197368
0.00219235
0.00277872
0.00323058
0.00269101
0.00218575
0.00161524
0.00159931
0.00150615
0.00156935
0.00184495
0.00199307
0.00138256
0.00142538
0.00145579
0.00147259
0.00147521
0.00146372
0.00163449
0.00149336
0.00138518
0.0013022
0.00123834
0.00118891
0.00126279
0.00129258
0.00132168
0.00134658
0.0013637
0.00137012
0.00148392
0.00142235
0.00134366
0.00125033
0.00114045
0.00100779
0.0022586
0.00228907
0.00229233
0.00226161
0.00220096
0.00211843
0.00348838
0.0034682
0.00339446
0.00327352
0.00312059
0.0044802
0.00444109
0.00433978
0.00417838
0.00397195
0.00513057
0.00508788
0.00498174
0.00481382
0.00459725
0.00557557
0.00553709
0.00543135
0.00527374
0.00505304
0.00595884
0.00593597
0.00578638
0.00555374
0.00526552
0.00634652
0.00620797
0.0058662
0.00546779
0.00506956
0.00657726
0.00589019
0.00503146
0.0043187
0.00387261
0.00640522
0.00475891
0.00359013
0.00303122
0.00276517
0.00567214
0.00372852
0.00355697
0.00380055
0.00389265
0.00414862
0.00383969
0.00588427
0.00641051
0.00643086
0.00147214
0.0014213
0.0014103
0.0014275
0.00147287
0.00157657
0.0021404
0.00478621
0.0181904
0.0362623
0.0311124
0.027981
0.0280518
0.0165758
0.0168443
0.0105878
0.00925125
0.00917759
0.0144617
0.0111198
0.00845555
0.00917447
0.00864504
0.0134724
0.0105194
0.00917105
0.0101942
0.00939213
0.0138753
0.0125674
0.00972177
0.00979532
0.00893815
0.0152273
0.0219681
0.0127395
0.0110997
0.0107085
0.00963686
0.0158135
0.0145444
0.0134196
0.0132722
0.004675
0.00734524
0.00773521
0.00775657
0.00775885
0.00776085
0.00229903
0.00293192
0.00381828
0.00431067
0.00376208
0.00319391
0.00162838
0.00160807
0.00154629
0.00175694
0.00198294
0.00209209
0.00145713
0.00148481
0.00149977
0.00150412
0.00149819
0.00148202
0.00167164
0.00152901
0.00141994
0.00133558
0.00126918
0.00121619
0.00128443
0.00130186
0.00132257
0.00134327
0.00135989
0.00136872
0.00167588
0.00161404
0.0015298
0.00142734
0.00130535
0.00116078
0.00265046
0.00266399
0.00264217
0.00258224
0.00249249
0.00238243
0.00420175
0.00421371
0.00416405
0.00404266
0.00386146
0.00364352
0.00526743
0.00525313
0.00515584
0.00497258
0.00472061
0.00582122
0.0058661
0.00583251
0.0057112
0.00552303
0.00620579
0.00630443
0.0063307
0.00625136
0.0060751
0.00662071
0.00673241
0.0066865
0.00653635
0.00630423
0.007039
0.00691647
0.00654732
0.00615137
0.00584186
0.00727085
0.00650806
0.00552766
0.00476172
0.00430987
0.00709738
0.00534387
0.00415322
0.0036449
0.00340916
0.0062548
0.0042446
0.00424633
0.00459054
0.00469423
0.00445897
0.00393408
0.00577332
0.00613944
0.00611327
0.00148851
0.00141843
0.00139519
0.00140239
0.00143847
0.00154545
0.00223723
0.00523517
0.0204819
0.0382086
0.0367191
0.0342784
0.0343416
0.0185739
0.0189905
0.0130278
0.01121
0.0111737
0.0161251
0.0118904
0.00871072
0.00903993
0.00855575
0.0150745
0.0109123
0.00921122
0.0100553
0.00931602
0.0155318
0.0132767
0.00991553
0.00975769
0.00896134
0.0164939
0.0215036
0.013294
0.0113153
0.0109233
0.0113617
0.0169479
0.0159244
0.0147168
0.0144248
0.00610137
0.00916494
0.00956517
0.00954339
0.00960025
0.00287201
0.00391603
0.00497835
0.00547366
0.00501776
0.00443927
0.00167414
0.00169477
0.00175389
0.00200759
0.00218624
0.00226243
0.00153177
0.00154494
0.00154438
0.00153457
0.00151721
0.00149298
0.00171379
0.0015691
0.00145816
0.00137169
0.00130272
0.00124652
0.0013066
0.00131145
0.00132295
0.00133783
0.00135169
0.00136034
0.00183094
0.0017717
0.00168719
0.00158158
0.00145332
0.0013004
0.00313843
0.00311909
0.00305563
0.0029521
0.00282187
0.00267769
0.00497685
0.00498869
0.00492781
0.0047731
0.00453897
0.0042569
0.00583327
0.0059566
0.00600948
0.00597115
0.0058207
0.00556577
0.00637254
0.00654534
0.00662809
0.00662471
0.00647791
0.00672367
0.00696491
0.00709619
0.00710921
0.00700033
0.00713647
0.00732162
0.00730505
0.0071996
0.00707017
0.00753192
0.0074138
0.00698017
0.00653697
0.00625378
0.00773695
0.00693561
0.00588027
0.0050952
0.00465602
0.0075084
0.00577554
0.00467016
0.00425812
0.00406595
0.00657974
0.00462935
0.00478151
0.00516956
0.00525738
0.00473581
0.00395692
0.00562004
0.00585452
0.00578641
0.00149271
0.00140399
0.00137504
0.00138075
0.0014159
0.00153048
0.00233313
0.00560885
0.0223539
0.0400101
0.0416236
0.0404183
0.0404602
0.0203079
0.0212489
0.0160704
0.0140394
0.0140331
0.017508
0.0128489
0.00918215
0.00907138
0.00863958
0.0163425
0.0114013
0.00930058
0.00993802
0.00925295
0.0168549
0.0139505
0.0101607
0.0097536
0.0090103
0.0174486
0.0210561
0.0138367
0.0115793
0.0111766
0.0128038
0.0177074
0.0169022
0.0156601
0.0152685
0.00746581
0.010654
0.0112054
0.011172
0.0112301
0.00362064
0.00505725
0.00622962
0.00672065
0.00638717
0.00176803
0.00187632
0.00205444
0.00230008
0.00244538
0.0024965
0.00160643
0.00160722
0.00159268
0.00156906
0.00153956
0.00150579
0.00176119
0.00161309
0.00149909
0.00140964
0.00133762
0.00127804
0.00133018
0.00132294
0.00132565
0.00133471
0.00134525
0.00135268
0.00195464
0.00190023
0.00181935
0.00171516
0.00158567
0.00143023
0.00371768
0.00364426
0.00352372
0.00336836
0.00319039
0.00300662
0.00564767
0.0056862
0.00567399
0.00553045
0.00528126
0.00496198
0.00628222
0.00649204
0.0066604
0.00674768
0.00669015
0.00650038
0.00652696
0.00685823
0.00715126
0.00737501
0.00746661
0.007393
0.00721736
0.00755548
0.00774149
0.00781663
0.00779301
0.00762854
0.00784596
0.00780954
0.00768627
0.00759737
0.00797968
0.00783973
0.00732566
0.00681545
0.00652782
0.00810384
0.0072697
0.00618899
0.00541121
0.00498878
0.00775748
0.00610053
0.00514058
0.00483818
0.00468458
0.00669241
0.00487023
0.00515819
0.00556485
0.00562604
0.00466108
0.00385506
0.00545552
0.00560695
0.00550096
0.0015104
0.00140642
0.00138147
0.00139391
0.00143267
0.00155144
0.00243168
0.00589676
0.0238217
0.0415843
0.0456272
0.0457787
0.0457929
0.0218821
0.0236621
0.0195482
0.0175642
0.0175797
0.0187469
0.0140013
0.00993366
0.00939769
0.0090234
0.0174136
0.0119907
0.00945219
0.00985248
0.00921462
0.0179215
0.0145842
0.0104524
0.00978293
0.00908573
0.0182085
0.0206738
0.014355
0.0118833
0.0114647
0.0140214
0.0182436
0.0176063
0.0163712
0.0159146
0.0087508
0.0119205
0.0126567
0.0126286
0.0125717
0.00450262
0.00628904
0.00753595
0.00802298
0.00777294
0.00192004
0.00213378
0.00239824
0.00262737
0.00276524
0.00168098
0.00167197
0.00164539
0.00160906
0.00156769
0.00152393
0.00181299
0.00166025
0.00154218
0.00144905
0.00137359
0.00131048
0.00135571
0.00133715
0.00133188
0.00133565
0.00134301
0.00134896
0.00205291
0.00200426
0.00192999
0.00183056
0.00170373
0.00155094
0.00422691
0.00410274
0.00398964
0.00380788
0.00359025
0.00337276
0.00614825
0.00622128
0.00626216
0.00623448
0.00604592
0.00575487
0.00671314
0.00699939
0.00725765
0.00745514
0.00754265
0.00740664
0.00695189
0.00737435
0.00776255
0.00805059
0.00821296
0.0082217
0.00722909
0.00774532
0.00813358
0.00833516
0.00842063
0.00844703
0.00812593
0.0083455
0.00826385
0.00809059
0.0080044
0.00840251
0.00821919
0.00763389
0.00706055
0.00675521
0.00840391
0.00753983
0.00648167
0.00573804
0.00533464
0.00790505
0.0063234
0.00553908
0.00534799
0.00522347
0.00668002
0.00495352
0.00538462
0.00581507
0.00585097
0.00449978
0.00362415
0.00526749
0.00538009
0.00524146
0.00155862
0.00145173
0.00143679
0.00145632
0.00149571
0.00161561
0.00254045
0.00609469
0.0249218
0.0429189
0.0486072
0.0499789
0.0499669
0.0233385
0.0261626
0.0233451
0.0215668
0.0215962
0.0199161
0.0153444
0.0110026
0.0100924
0.00977588
0.0183676
0.012683
0.00968216
0.00981476
0.00921941
0.0187971
0.0151812
0.0107862
0.00984616
0.00918915
0.0188416
0.0203798
0.0148434
0.0122194
0.0117832
0.0150638
0.0186501
0.0181372
0.0169276
0.0164315
0.00995174
0.013026
0.0139289
0.0138973
0.0137068
0.00547971
0.00754328
0.00885527
0.0093232
0.00906277
0.00212922
0.00245423
0.00275209
0.00297541
0.00312799
0.00175516
0.00173893
0.00170243
0.0016548
0.00160227
0.00154865
0.00186854
0.00171023
0.00158733
0.00149002
0.00141082
0.00134405
0.00138344
0.00135448
0.00134222
0.00134146
0.00134607
0.00135066
0.00213744
0.00209334
0.00202425
0.00193182
0.00181378
0.00166446
0.00461474
0.00446057
0.00433946
0.00422271
0.00401047
0.00379287
0.00662092
0.00672761
0.00681579
0.00686463
0.00682961
0.00656741
0.007192
0.00754126
0.00787359
0.00814608
0.00828734
0.00824132
0.00745039
0.00794125
0.00838954
0.00870439
0.00889133
0.00895219
0.00774121
0.00831117
0.00871115
0.00889911
0.0089645
0.00900513
0.00808464
0.00863454
0.00882432
0.0086844
0.00844925
0.00834809
0.00881074
0.0085626
0.00792232
0.00730194
0.00697736
0.00867004
0.0077589
0.00675321
0.00606859
0.00568889
0.00801161
0.00645033
0.00584302
0.00576515
0.00566457
0.00663272
0.00489874
0.00547762
0.00595398
0.00597293
0.0043562
0.0032397
0.00503078
0.00515002
0.00498737
0.00164138
0.00154346
0.00153598
0.00155685
0.00159353
0.00171438
0.00266141
0.00621899