/*--------------------------------*- C++ -*----------------------------------*\
| =========                 |                                                 |
| \\      /  F ield         | OpenFOAM: The Open Source CFD Toolbox           |
|  \\    /   O peration     | Version:  2.3.1                                 |
|   \\  /    A nd           | Web:      www.OpenFOAM.org                      |
|    \\/     M anipulation  |                                                 |
\*---------------------------------------------------------------------------*/
FoamFile
{
    version     2.0;
    format      ascii;
    class       volScalarField;
    location    "600";
    object      epsilon;
}
// * * * * * * * * * * * * * * * * * * * * * * * * * * * * * * * * * * * * * //

dimensions      [0 2 -3 0 0 0 0];

internalField   nonuniform List<scalar> 
6852
(
0.0246736
0.0204255
0.0169171
0.0141434
0.0120473
0.0105267
0.0378606
0.0317747
0.0270313
0.0233701
0.020646
0.018674
0.0247167
0.0215033
0.0190716
0.0172563
0.0159262
0.0172298
0.0153876
0.0139581
0.0128768
0.0120725
0.0157273
0.0141336
0.0127964
0.0117412
0.0109175
0.0212554
0.0192828
0.0176877
0.0164726
0.0155658
0.0288831
0.026589
0.0247805
0.0234339
0.0224563
0.0393617
0.036843
0.0348992
0.0334667
0.0324408
0.0537348
0.0510969
0.0490804
0.0475863
0.0465145
0.0731618
0.0705897
0.0686202
0.0671281
0.0660405
0.0996501
0.0974368
0.0957066
0.0943251
0.0932801
0.13696
0.135411
0.134121
0.13296
0.13201
0.18719
0.18702
0.186658
0.186021
0.185341
0.249232
0.251399
0.252682
0.253085
0.252988
0.315298
0.319801
0.322796
0.324556
0.325289
0.367142
0.374445
0.379633
0.383136
0.38499
0.396745
0.406659
0.413962
0.419148
0.422107
0.402207
0.414007
0.422879
0.429295
0.433046
0.387316
0.400068
0.409748
0.416754
0.420828
0.358906
0.371795
0.381598
0.388606
0.392549
0.324066
0.336594
0.346081
0.352703
0.3562
0.288367
0.300385
0.309407
0.315496
0.318399
0.255305
0.266942
0.275585
0.281189
0.283494
0.226516
0.23808
0.246585
0.251877
0.253677
0.202303
0.214192
0.222876
0.228092
0.229542
0.181921
0.194687
0.203935
0.209324
0.210625
0.164474
0.178288
0.18858
0.194405
0.195838
0.192283
0.148675
0.163635
0.174908
0.181459
0.183437
0.179856
0.133245
0.149052
0.160877
0.168117
0.171342
0.168506
0.116815
0.132378
0.14358
0.150492
0.156203
0.155636
0.0987224
0.112307
0.120433
0.124447
0.135047
0.139412
0.079167
0.0882258
0.08979
0.0885583
0.105135
0.118118
0.0593285
0.0619991
0.0534024
0.0461446
0.0674056
0.0923767
0.0440723
0.0435785
0.0418402
0.0498177
0.0556298
0.0775919
0.036837
0.0406188
0.0456179
0.0555716
0.0664438
0.0838762
0.0348092
0.0391779
0.0445005
0.0526365
0.0644682
0.0824265
0.0314502
0.0343823
0.0376437
0.0426327
0.0528559
0.0710452
0.0262996
0.0271934
0.0280999
0.0307004
0.0375688
0.0539032
0.0212187
0.0205881
0.0197586
0.0209721
0.0245163
0.0376789
0.0183645
0.0168548
0.0148657
0.0149892
0.0166439
0.0260868
0.0112395
0.009801
0.00768342
0.00662408
0.00753741
0.0119108
0.0348862
0.0290061
0.0243114
0.0206836
0.0179578
0.0159918
0.0101562
0.00905065
0.00821968
0.00759278
0.0071109
0.00675607
0.00582778
0.00563834
0.00546059
0.00530523
0.00517666
0.00508229
0.00583597
0.00567883
0.005573
0.00547245
0.00540039
0.00498105
0.00499917
0.00501518
0.00500921
0.00500974
0.00578379
0.00576423
0.00575639
0.00573048
0.00571566
0.0072378
0.00721279
0.00719445
0.00715809
0.00713462
0.00873761
0.00870435
0.00868175
0.00864362
0.0086206
0.0104295
0.0103902
0.0103677
0.0103308
0.0103099
0.0123659
0.0123286
0.012313
0.0122825
0.0122668
0.0144026
0.01439
0.0143954
0.0143789
0.0143718
0.016193
0.0162362
0.0162802
0.0162875
0.0162935
0.0182765
0.0183839
0.0184719
0.0185044
0.0185237
0.0211014
0.0213182
0.0214817
0.0215574
0.0216003
0.0247502
0.0257445
0.0264775
0.0268275
0.0270288
0.0321459
0.0338694
0.0351335
0.0358078
0.0362059
0.0400084
0.0422282
0.0438681
0.0448332
0.0454254
0.0457962
0.0483618
0.0502922
0.0515141
0.0522956
0.0487324
0.0514664
0.0535579
0.0549495
0.0558753
0.0490395
0.0517696
0.0538872
0.055343
0.0563488
0.047437
0.0500332
0.0520682
0.0534968
0.0545215
0.0447483
0.0471374
0.049026
0.0503692
0.0513678
0.0416807
0.0438477
0.0455704
0.046806
0.0477533
0.0387511
0.0407346
0.0423117
0.0434472
0.044334
0.0362973
0.0381861
0.0396751
0.0407437
0.0415711
0.0345139
0.0364645
0.0379677
0.0390266
0.0398008
0.0335062
0.0357507
0.0374372
0.0385734
0.0393038
0.0333117
0.0362029
0.0383244
0.0396846
0.0403897
0.0400598
0.033847
0.0378984
0.0408307
0.0426327
0.0433648
0.0425167
0.0349812
0.0408156
0.0451014
0.0476594
0.0485894
0.047059
0.0363095
0.0448395
0.0510271
0.054758
0.0561814
0.0538404
0.0372495
0.0492425
0.0577767
0.0630199
0.0656225
0.0627927
0.0358007
0.0484979
0.057168
0.0656836
0.0666463
0.0659407
0.0320477
0.0433782
0.0543945
0.0615368
0.0655042
0.0643733
0.0277437
0.0380868
0.0448142
0.050329
0.0598668
0.0630248
0.023219
0.0284657
0.0335031
0.0392987
0.0446607
0.049847
0.0165997
0.0187364
0.0233088
0.0281178
0.0294618
0.0327375
0.0106658
0.0112773
0.0152816
0.0196324
0.01841
0.0193304
0.00780682
0.00850652
0.0117867
0.0159329
0.0149763
0.0150805
0.00861421
0.00963476
0.0112206
0.0143417
0.0160698
0.0184017
0.024129
0.0224215
0.0176164
0.0133277
0.0198324
0.0366154
0.0365076
0.0301935
0.0252929
0.0215991
0.0188605
0.0169055
0.00648924
0.00603373
0.00568879
0.00542357
0.00521772
0.00506445
0.00563965
0.00545047
0.00523978
0.00505737
0.0049099
0.0048032
0.00467045
0.00437858
0.00413862
0.00402625
0.00392388
0.00385653
0.00214661
0.00215877
0.00219189
0.0022085
0.00222775
0.00230693
0.00234625
0.00239812
0.0024264
0.00245373
0.00303271
0.00309434
0.00315857
0.00319296
0.00322336
0.00377033
0.00384071
0.00391375
0.00395455
0.00399001
0.00460152
0.00468031
0.00476478
0.0048139
0.00485577
0.00560538
0.00569549
0.00579344
0.00585261
0.00590248
0.0066086
0.00671643
0.00683015
0.00689873
0.00695507
0.00700484
0.00712987
0.00725152
0.00732457
0.00738332
0.00711849
0.00719722
0.00729065
0.00734315
0.00738787
0.00728699
0.00730418
0.00736489
0.0073987
0.00743031
0.00762121
0.00761071
0.00766059
0.00769058
0.00771683
0.00816103
0.00815875
0.00821829
0.00825922
0.00828844
0.00883819
0.00904057
0.00926181
0.00940478
0.0094943
0.00978922
0.0102044
0.0105766
0.0108222
0.0109754
0.0106664
0.0112447
0.0117334
0.0120657
0.0122774
0.0112449
0.0119218
0.0124816
0.0128726
0.0131295
0.0114646
0.0121801
0.0127666
0.0131858
0.0134711
0.0113804
0.0120866
0.0126662
0.0130881
0.0133864
0.0111004
0.0117674
0.0123176
0.0127254
0.0130261
0.0107437
0.0113598
0.0118701
0.0122555
0.0125539
0.01042
0.010992
0.0114653
0.0118299
0.012127
0.0102306
0.0107935
0.0112502
0.011607
0.011909
0.0102891
0.0109206
0.0114076
0.0117849
0.0121013
0.010731
0.0116068
0.0122286
0.0126878
0.0130279
0.0117247
0.0131763
0.0141826
0.0148514
0.0152165
0.0150221
0.0134936
0.0162101
0.0181056
0.0192924
0.0196732
0.0189031
0.0162607
0.0219065
0.0260062
0.0286716
0.0288539
0.0265865
0.0204802
0.033389
0.0433981
0.0501961
0.0492476
0.0431439
0.0239979
0.0441933
0.0621793
0.0788047
0.0711467
0.0600369
0.0254932
0.0499617
0.0776107
0.100094
0.0877193
0.0708725
0.0247175
0.0494415
0.0775529
0.0855072
0.0854046
0.0720597
0.0219679
0.0423619
0.0644703
0.0692989
0.0609059
0.058275
0.017397
0.0293725
0.0498137
0.0516641
0.0372874
0.0341678
0.0110974
0.0154431
0.0305417
0.0324014
0.0187787
0.0148979
0.00758566
0.00985896
0.0208133
0.0247191
0.0147365
0.0109262
0.00710336
0.00916108
0.0151814
0.0212926
0.0188635
0.0173495
0.0275894
0.0278781
0.0229966
0.016933
0.0351437
0.0576288
0.0429258
0.0366592
0.0312484
0.0266838
0.0232014
0.0207226
0.00755116
0.00633635
0.00556845
0.00524173
0.00504941
0.00490462
0.00830654
0.00770089
0.00714394
0.00669496
0.00634201
0.00608276
0.00474555
0.00429587
0.00392785
0.00376712
0.00363008
0.00354177
0.00122841
0.00111786
0.00105416
0.00103741
0.00102093
0.00101398
0.000874613
0.000874812
0.00089377
0.000903539
0.000914719
0.00117776
0.00120646
0.00124372
0.00126488
0.00128356
0.00156366
0.00160571
0.00165555
0.00168505
0.00170999
0.00206817
0.00212836
0.00219618
0.00223729
0.00227094
0.00283067
0.00291746
0.00300797
0.00306365
0.00310846
0.00396823
0.00408356
0.00419322
0.00425883
0.00431187
0.00541554
0.00556406
0.00567679
0.00573516
0.00578894
0.00629331
0.00637283
0.00641863
0.00638962
0.00640653
0.00692491
0.00683135
0.00680443
0.00673293
0.00671853
0.00752891
0.00738587
0.00735543
0.0073047
0.00729594
0.00815435
0.00806622
0.00808323
0.00808387
0.0080968
0.00876575
0.00883616
0.00895705
0.00904149
0.00908699
0.00931603
0.00959496
0.00985216
0.0100349
0.0101112
0.00974803
0.0102348
0.010626
0.0109028
0.0110063
0.0100205
0.0106764
0.0111758
0.0115313
0.0116517
0.0101184
0.0108942
0.0114707
0.0118855
0.012009
0.010055
0.0109088
0.0115307
0.0119841
0.0121003
0.00986607
0.0107582
0.0114069
0.0118794
0.0119818
0.00958767
0.010484
0.0111511
0.0116296
0.0117123
0.0092468
0.0101257
0.0107982
0.0112735
0.0113296
0.00888656
0.0097357
0.0103775
0.0108286
0.0108688
0.00859143
0.00941489
0.0100104
0.0104206
0.0104733
0.00846506
0.00934494
0.00992846
0.0103304
0.0104092
0.00868753
0.00988097
0.0106017
0.0110908
0.0112004
0.00965871
0.0119807
0.0133028
0.0141659
0.0142892
0.0138292
0.0124028
0.0210571
0.026506
0.0296809
0.0293259
0.0264687
0.021642
0.0430885
0.0530104
0.0615288
0.0587792
0.0514899
0.031337
0.0613643
0.0744414
0.0929174
0.0820143
0.0697869
0.0376653
0.0748806
0.0972872
0.132256
0.105495
0.0850474
0.0393585
0.0792994
0.113282
0.132279
0.113812
0.090409
0.036909
0.0762177
0.114795
0.122719
0.093555
0.0813521
0.0319324
0.0711209
0.112941
0.117802
0.0798374
0.0668731
0.0175414
0.037414
0.071508
0.0775358
0.0468408
0.0337757
0.00960825
0.0142478
0.0309285
0.0392975
0.0207693
0.0130365
0.00787645
0.00992375
0.0185344
0.0290815
0.0227299
0.0184488
0.027832
0.0312901
0.0291631
0.0229113
0.0413745
0.0649772
0.0421142
0.0366802
0.0316544
0.0272982
0.0238459
0.0213013
0.0124333
0.0108692
0.00956826
0.00854644
0.00776274
0.00719267
0.0133347
0.0121466
0.0110297
0.0099879
0.00915119
0.00852272
0.00521604
0.00462284
0.00415729
0.0039656
0.00380695
0.00370577
0.000966774
0.000829704
0.000717439
0.00067145
0.000633461
0.000610423
0.000382799
0.000367562
0.000349981
0.000348491
0.000345749
0.000345444
0.000445986
0.000451417
0.000464307
0.000471209
0.000477384
0.000618516
0.000634843
0.000657539
0.000670677
0.000681464
0.000892604
0.000927039
0.000965412
0.000988277
0.00100638
0.00147366
0.00153871
0.00160018
0.00163757
0.00166632
0.00305005
0.00313219
0.0032005
0.00324221
0.00327633
0.0077198
0.00796798
0.00809873
0.00814612
0.0081972
0.0104828
0.0107823
0.0107023
0.0103152
0.0102729
0.0126944
0.0120483
0.0115756
0.0109637
0.0106865
0.0138273
0.013051
0.0127054
0.0123155
0.012098
0.0144648
0.0135282
0.0132378
0.0131064
0.0132061
0.0146564
0.0137955
0.0136223
0.0136742
0.0139597
0.0145253
0.0138118
0.0137467
0.013954
0.0142696
0.014256
0.0137157
0.0137464
0.0140321
0.014305
0.0139771
0.0135925
0.0137127
0.0140264
0.0142438
0.0137568
0.0134987
0.013696
0.0140423
0.0142355
0.0136251
0.0134713
0.0137448
0.0141694
0.0143915
0.0136103
0.0135386
0.0139467
0.0144794
0.0147776
0.0136688
0.0137165
0.0142908
0.0150179
0.0154173
0.013813
0.0140266
0.0147135
0.0157658
0.0162606
0.0140532
0.0145038
0.015415
0.0165939
0.017133
0.0143811
0.0151437
0.0163861
0.0178073
0.0183636
0.0148616
0.0161215
0.0178958
0.019825
0.0203782
0.0156597
0.0177453
0.0202421
0.0229358
0.0234712
0.0172258
0.0219844
0.026376
0.0305557
0.0313053
0.0234796
0.0395629
0.0481426
0.05728
0.0580159
0.052616
0.0420062
0.130503
0.155549
0.168564
0.165884
0.164747
0.0531952
0.181612
0.241119
0.271312
0.253254
0.243649
0.0610108
0.208202
0.295808
0.366374
0.307853
0.278639
0.0644777
0.2219
0.355001
0.438039
0.347607
0.28851
0.0631641
0.244411
0.442535
0.479165
0.374637
0.304276
0.0670995
0.276809
0.411692
0.403742
0.307377
0.272546
0.0389472
0.0904232
0.128334
0.141439
0.0975717
0.0777118
0.0153978
0.0242439
0.0445738
0.0621019
0.0408416
0.0276649
0.0112
0.0147514
0.0218255
0.0325955
0.0312128
0.0288777
0.0303045
0.0335036
0.0311776
0.0262218
0.0380991
0.0614018
0.0220869
0.0193482
0.0166359
0.0141941
0.0121852
0.010658
0.0311338
0.0269789
0.0231137
0.019726
0.0169635
0.0148698
0.0266777
0.0225376
0.0188928
0.0157999
0.0132957
0.0113803
0.00500605
0.00459549
0.00422114
0.00403613
0.00388464
0.00378996
0.000639087
0.000561178
0.000493606
0.000463091
0.000437808
0.000421484
0.00018
0.000165073
0.000154277
0.000150427
0.000147002
0.000144878
0.000174779
0.000171987
0.000171905
0.000174814
0.000175987
0.000176941
0.000235936
0.000241911
0.000249734
0.000253904
0.000256995
0.000357076
0.000373799
0.000389657
0.000398824
0.000405653
0.000793151
0.000835349
0.000869125
0.000890437
0.00090572
0.00296279
0.0030012
0.00302657
0.00304387
0.00305731
0.0160225
0.0166142
0.0168647
0.0169399
0.016997
0.0228358
0.0218357
0.0193592
0.0160217
0.0142505
0.0477051
0.0318529
0.020976
0.0136582
0.00936861
0.0587648
0.0389038
0.0253608
0.0159248
0.0101854
0.058743
0.0377071
0.0236843
0.0143576
0.00873737
0.0573827
0.0368809
0.023312
0.0141728
0.00808182
0.057077
0.0375309
0.0243141
0.0152312
0.00922291
0.0578378
0.0393009
0.0264157
0.0173391
0.0116533
0.0597147
0.0421653
0.0295595
0.0204436
0.0152268
0.0628051
0.0462113
0.0338454
0.0247359
0.0200711
0.0672658
0.0516457
0.0395224
0.030372
0.0265635
0.0733256
0.0588226
0.047009
0.0378645
0.0351687
0.0814186
0.0683007
0.0570432
0.0480722
0.0466198
0.0920342
0.0809356
0.0708703
0.0624299
0.0622639
0.10574
0.0978684
0.089981
0.0832089
0.0842664
0.123478
0.121153
0.117376
0.113779
0.115851
0.145666
0.152063
0.155355
0.157443
0.160166
0.175015
0.199058
0.216865
0.230084
0.233281
0.208034
0.249122
0.283659
0.314709
0.318428
0.258375
0.384697
0.481731
0.560549
0.565783
0.341457
0.379165
0.37877
0.406878
0.406925
0.394857
0.363428
0.367727
0.356088
0.369341
0.357766
0.373192
0.349237
0.356298
0.358906
0.394172
0.346746
0.364566
0.317191
0.346702
0.407857
0.469751
0.377428
0.361682
0.27307
0.361253
0.519836
0.539216
0.445275
0.393127
0.18418
0.38832
0.50312
0.478727
0.41397
0.408765
0.0724375
0.146814
0.231557
0.290438
0.254862
0.231534
0.0401267
0.0533252
0.0690397
0.0865615
0.0842413
0.0916067
0.029492
0.0364013
0.0404899
0.0460132
0.0523729
0.065877
0.0169418
0.0182857
0.016735
0.0154164
0.0188803
0.0286898
0.00341243
0.0033744
0.00336184
0.00335227
0.00334532
0.00334141
0.000267871
0.000248554
0.000235603
0.000227675
0.000221139
0.000216364
7.78199e-05
7.02605e-05
6.77004e-05
6.58801e-05
6.43867e-05
6.32144e-05
7.56733e-05
7.04877e-05
7.03784e-05
7.0326e-05
6.99639e-05
6.95466e-05
8.95231e-05
8.76011e-05
8.95501e-05
9.09489e-05
9.14526e-05
9.16278e-05
0.000120821
0.000125478
0.000128635
0.000130263
0.000131289
0.000313178
0.000326446
0.000335121
0.000340876
0.000345197
0.00358799
0.00360906
0.00362147
0.00362974
0.00363719
0.31642
0.594839
0.637976
0.639447
0.59387
0.35403
0.364709
0.356245
0.374113
0.595728
0.351618
0.38135
0.339847
0.36011
0.598488
0.394368
0.448936
0.365073
0.3545
0.631363
0.4986
0.517599
0.429288
0.38361
0.354834
0.910751
0.892064
0.729038
0.689008
0.00123045
0.00122923
0.00122817
0.00122749
0.00122678
0.00122633
7.36488e-05
7.04417e-05
6.99155e-05
6.88369e-05
6.81082e-05
6.74798e-05
3.47937e-05
3.1603e-05
3.12053e-05
3.0389e-05
2.98065e-05
2.93046e-05
3.75152e-05
3.46056e-05
3.45737e-05
3.39685e-05
3.34892e-05
3.30383e-05
4.05955e-05
3.84743e-05
3.89983e-05
3.87449e-05
3.8507e-05
3.82217e-05
4.8342e-05
4.68963e-05
4.79874e-05
4.81169e-05
4.81708e-05
4.81033e-05
7.28284e-05
7.41709e-05
7.43843e-05
7.45904e-05
7.46651e-05
0.00121653
0.00121698
0.0012172
0.00121705
0.00121703
0.804947
1.3014
1.35701
1.36127
1.29709
0.357201
0.349974
0.34295
1.28113
0.340316
0.34907
0.313702
0.347061
1.29112
0.380086
0.40764
0.337146
0.342766
1.38123
0.494606
0.492858
0.410547
0.385494
0.89352
1.87378
1.83763
1.54516
1.47145
0.0020537
0.00227257
0.00236162
0.00232844
0.00219659
0.00199512
0.00342534
0.00385647
0.00410092
0.0041395
0.00398898
0.00368957
0.00196816
0.00213344
0.00219917
0.00217111
0.002062
0.00189009
0.00082144
0.000655636
0.000529749
0.000406407
0.000279785
0.00258199
0.00221451
0.0019195
0.00162648
0.00130159
0.00357995
0.00324761
0.00294704
0.00261628
0.00222042
0.00441218
0.00410903
0.00380439
0.00344261
0.00298967
0.0051711
0.00490276
0.00460429
0.00421759
0.00370906
0.00581898
0.00558622
0.0053075
0.00489806
0.00434127
0.00627147
0.00604132
0.00575904
0.00535654
0.00481656
0.00640711
0.00606167
0.00581226
0.00548178
0.0050443
0.00609225
0.00549425
0.00534416
0.00517453
0.00496421
0.0053936
0.00380834
0.00354201
0.00320718
0.00309304
0.00471656
0.00167103
0.00136413
0.00126774
0.00123705
0.00385752
0.000818884
0.000772078
0.000769951
0.000770031
0.00262119
0.00295451
0.00327597
0.00378659
0.00473086
0.00670614
0.012637
0.0440698
0.655142
3.23608
2.86927
2.76773
2.77572
0.591373
1.61799
0.40231
0.353558
0.349567
0.482437
1.4781
0.316613
0.294454
0.267621
0.432177
1.48484
0.349273
0.33967
0.286255
0.343069
1.62456
0.479257
0.446412
0.374757
0.381376
0.406958
1.5368
2.0436
1.98302
1.72646
1.67889
0.0834998
0.462221
0.477908
0.497509
0.470569
0.467314
0.0241078
0.0468155
0.0632291
0.0744451
0.0744934
0.0689129
0.011054
0.0120129
0.0125675
0.0140618
0.0152368
0.0174773
0.00485517
0.00487105
0.00441653
0.00440386
0.00575841
0.00749327
0.00360877
0.00415566
0.00452104
0.00467001
0.00460632
0.00436176
0.00104293
0.00107231
0.00112397
0.00116976
0.00119351
0.00118862
0.00338081
0.00373748
0.00398511
0.00410308
0.00408263
0.00392851
0.00168371
0.00137707
0.0010984
0.0008576
0.000620375
0.00141743
0.0012638
0.00112049
0.000977065
0.00082967
0.0013536
0.00124318
0.00113919
0.0010334
0.000920611
0.00134465
0.00125332
0.00116677
0.00107874
0.000983771
0.00136046
0.00127822
0.00120017
0.0011217
0.00103696
0.00139272
0.00131633
0.00124586
0.00119398
0.00113519
0.00143593
0.00137569
0.00136017
0.00134329
0.00129768
0.00149591
0.00152256
0.00156693
0.00158837
0.00155483
0.00165748
0.00189677
0.00206555
0.00218739
0.00217695
0.00203043
0.00271803
0.00252272
0.00231476
0.00218643
0.00265591
0.00182275
0.00111086
0.000920581
0.000879575
0.00280177
0.00036613
0.000211282
0.000191617
0.000193009
0.00494917
0.00490655
0.00508323
0.00553341
0.00637906
0.00807626
0.0145194
0.0913889
0.962796
4.91661
4.1199
3.84014
3.84893
0.860134
1.57473
0.483891
0.402456
0.400414
0.731919
1.273
0.297919
0.266246
0.243882
0.667492
1.26811
0.323117
0.302101
0.257361
0.60975
1.42524
0.449074
0.4069
0.344212
0.587314
1.68491
1.71271
1.6365
1.44718
1.43472
0.136025
0.638386
0.727671
0.73302
0.700752
0.697392
0.0156846
0.0521758
0.0692167
0.0762427
0.0714495
0.0648172
0.00383484
0.00585689
0.0089833
0.0120191
0.0101981
0.00822657
0.00796247
0.00797563
0.00684355
0.0067999
0.0102139
0.0135048
0.00432677
0.00491531
0.00536902
0.00563558
0.00569125
0.00554126
0.00108512
0.00109087
0.00109795
0.00109865
0.00109067
0.00106975
0.00369815
0.00406197
0.00438634
0.00463136
0.00476105
0.00475177
0.0038848
0.00334901
0.00280744
0.00226184
0.00168124
0.00116837
0.0019426
0.00174737
0.00154887
0.00133746
0.00111732
0.00150331
0.00138343
0.00126826
0.00115013
0.00102403
0.00130485
0.00120662
0.00111583
0.00102835
0.000939547
0.00120642
0.00111154
0.00102504
0.000946282
0.000872488
0.00116507
0.00106742
0.000979992
0.000907929
0.000849085
0.00116619
0.00107826
0.00101603
0.000972036
0.000929341
0.00123138
0.00124053
0.00126084
0.00128447
0.00126106
0.0014856
0.0018496
0.00202404
0.00213011
0.00209408
0.00211242
0.00274834
0.00224177
0.00193626
0.00178791
0.00275675
0.00171902
0.000979035
0.000798034
0.000765481
0.00265927
0.000363076
0.000211351
0.000195535
0.00019889
0.00569951
0.00532464
0.00534653
0.00569085
0.00641855
0.0079259
0.0163357
0.148254
1.30714
5.84441
5.40772
5.03008
5.03753
1.05342
1.5919
0.639234
0.520255
0.520163
0.879755
1.11093
0.287173
0.247339
0.228831
0.804893
1.09009
0.299377
0.270505
0.232821
0.755271
1.26707
0.420693
0.370787
0.316111
0.693419
1.68481
1.45953
1.36538
1.22127
0.211886
0.754981
0.843277
0.838854
0.810763
0.810025
0.0380056
0.104933
0.118499
0.123968
0.12187
0.124335
0.00597797
0.0101143
0.0155865
0.0200176
0.0167882
0.0141365
0.00818479
0.00794356
0.00663481
0.00750952
0.0122031
0.0153851
0.00514556
0.00563709
0.00600464
0.00621595
0.00625182
0.00610958
0.00127212
0.00126794
0.00125884
0.00124086
0.00121261
0.00117372
0.00391995
0.00420397
0.00449444
0.00475476
0.00494075
0.00501338
0.00634528
0.00558713
0.00470994
0.00379522
0.00288026
0.00198778
0.00273116
0.00251537
0.00229713
0.00206652
0.00181158
0.0015274
0.00171009
0.00159587
0.00148766
0.0013744
0.00124546
0.00141636
0.00131971
0.00123311
0.0011517
0.00106843
0.0012967
0.0011976
0.00110872
0.00103034
0.000959483
0.00125901
0.00115589
0.00106449
0.000992036
0.00093003
0.00128077
0.00120492
0.00114434
0.00109739
0.00104586
0.00140986
0.00147319
0.0015142
0.00154878
0.00151398
0.00180009
0.00222436
0.00224176
0.00223055
0.00217156
0.00250733
0.00262991
0.00195704
0.001636
0.00151005
0.00291961
0.00159756
0.000923545
0.000778783
0.000763462
0.00261271
0.000395295
0.000259765
0.000254541
0.000259518
0.00619787
0.00557719
0.0054486
0.00565048
0.00620658
0.00761173
0.0190456
0.212946
1.55033
6.1502
6.48226
6.20551
6.2076
1.16136
1.62809
0.851788
0.708581
0.710007
0.956036
0.987764
0.287263
0.240134
0.225006
0.876736
0.946516
0.278469
0.244137
0.212252
0.830198
1.1375
0.394823
0.338266
0.290599
0.739744
1.5978
1.26158
1.15257
1.03936
0.268538
0.794059
0.881097
0.873119
0.847368
0.061583
0.162978
0.161934
0.164905
0.173066
0.193519
0.00997062
0.0179472
0.0251245
0.0303219
0.0286614
0.0283145
0.00838575
0.00807418
0.00717999
0.0105399
0.0151514
0.0177922
0.00602388
0.00637185
0.00656479
0.00662287
0.00654714
0.00634011
0.00147503
0.00145134
0.00141615
0.00137064
0.00131754
0.00125855
0.00412426
0.00429451
0.00450275
0.00471881
0.00489828
0.00499669
0.00914216
0.00816623
0.00695287
0.00564731
0.00431993
0.00303862
0.00318878
0.00298182
0.00276986
0.00253853
0.0022686
0.00194948
0.00197672
0.00186172
0.00176157
0.00167008
0.00157397
0.00145766
0.00153925
0.00144522
0.00136338
0.00128986
0.00121643
0.00143451
0.00133517
0.0012474
0.00117242
0.00111198
0.00142226
0.00132951
0.00125576
0.00119164
0.00113027
0.00149693
0.00147471
0.00144231
0.00140927
0.00134861
0.00174406
0.00188905
0.00192051
0.0019359
0.00189757
0.00223554
0.00246505
0.0022523
0.00212368
0.00207482
0.00286565
0.00247275
0.00172111
0.00141832
0.00132539
0.00300845
0.00149746
0.00091519
0.000815614
0.00082265
0.00260246
0.000416181
0.000297573
0.000304443
0.000310966
0.00640391
0.00554097
0.00527343
0.00535591
0.00578042
0.00716868
0.0217466
0.278662
1.66844
6.06499
7.1688
7.1802
7.17337
1.20309
1.66619
1.09171
0.952385
0.954576
0.976526
0.898631
0.299373
0.246412
0.234251
0.904266
0.832867
0.260798
0.222502
0.195432
0.860762
1.02879
0.37184
0.309403
0.267777
0.747836
1.46719
1.10445
0.985518
0.894259
0.307611
0.788164
0.876822
0.868685
0.833244
0.0835669
0.205426
0.198655
0.203827
0.230756
0.0150891
0.0276613
0.0359076
0.0425328
0.0445186
0.0471167
0.00911245
0.00945239
0.0104828
0.0157232
0.0203041
0.0224985
0.00699775
0.00717737
0.00716762
0.00703227
0.00679833
0.00648032
0.00169646
0.00164928
0.00158332
0.00150419
0.00141982
0.00133463
0.00434104
0.00438967
0.00450609
0.004661
0.00480926
0.00490416
0.0119241
0.0108023
0.00932816
0.00768354
0.00596192
0.00427136
0.00349682
0.00331984
0.00313878
0.00293342
0.00267688
0.00235063
0.00211306
0.00200699
0.00191479
0.0018353
0.0017555
0.00165678
0.00181623
0.0017078
0.00161207
0.00152926
0.00145866
0.00139268
0.00163821
0.00154272
0.00145876
0.00139781
0.00133776
0.00167345
0.0016169
0.00156669
0.0015073
0.00143624
0.00182943
0.00186222
0.00184596
0.00181592
0.00174547
0.00216896
0.00227979
0.00219923
0.00214515
0.00213492
0.00268626
0.00263046
0.00219221
0.00195512
0.0018987
0.00316303
0.00235376
0.00156524
0.00128784
0.00122616
0.00309075
0.00143326
0.000937371
0.000883957
0.000915197
0.0027051
0.000432236
0.00032488
0.000342947
0.000351738
0.00645488
0.0053713
0.00504694
0.00511116
0.00551229
0.00696207
0.0246644
0.342696
1.67869
5.75291
7.39561
7.75629
7.73914
1.20425
1.69886
1.32522
1.21745
1.21961
0.96445
0.836962
0.322222
0.265658
0.25607
0.895045
0.743992
0.246586
0.205236
0.182207
0.860304
0.93548
0.351708
0.284116
0.247621
0.733457
1.32188
0.977444
0.853672
0.778195
0.332338
0.757436
0.843851
0.83535
0.7953
0.102684
0.231988
0.233678
0.24505
0.274704
0.0211534
0.0412876
0.0487454
0.0571641
0.063272
0.0107335
0.0128292
0.0168512
0.0236434
0.0284116
0.0302253
0.00807141
0.00808064
0.00786083
0.00751632
0.00710213
0.00664726
0.00193789
0.00186622
0.00176764
0.0016519
0.00153251
0.00141686
0.00457999
0.00450574
0.00453337
0.00462783
0.00473999
0.00482064
0.0145099
0.0133295
0.011697
0.00979947
0.00774284
0.00568094
0.00371491
0.00357606
0.00343333
0.00326245
0.0030354
0.00272462
0.00232334
0.00221446
0.00210888
0.00202719
0.00195277
0.00186808
0.00207639
0.0019627
0.00186044
0.00177069
0.00169912
0.00164243
0.0020273
0.00192842
0.00185088
0.00179227
0.00172863
0.00165501
0.00202041
0.00200701
0.00196677
0.00190957
0.00182361
0.00226047
0.00229863
0.00223619
0.00216707
0.00211344
0.00264888
0.00265354
0.0024074
0.00223411
0.00220508
0.00312874
0.00277935
0.00214047
0.00180705
0.00173368
0.00343424
0.0023082
0.00149115
0.0012342
0.00119912
0.00323013
0.00142864
0.000981914
0.000970688
0.00102734
0.00302527
0.000448061
0.000345163
0.000372672
0.000384676
0.00668599
0.0053989
0.00511833
0.00525916
0.00571108
0.00725265
0.0279251
0.398233
1.60148
5.29467
7.20191
7.83664
7.8111
1.17902
1.73233
1.52595
1.46422
1.46582
0.935831
0.796945
0.352881
0.294787
0.287391
0.866341
0.674936
0.235821
0.191925
0.172316
0.839172
0.854148
0.334218
0.262162
0.230015
0.70644
1.17893
0.872939
0.748623
0.684825
0.34594
0.714256
0.795658
0.788136
0.747312
0.118707
0.247762
0.261901
0.277452
0.301748
0.0279129
0.054739
0.0626871
0.0735313
0.0852515
0.0137475
0.0188714
0.0268065
0.0352393
0.0410817
0.00924775
0.00909683
0.00866707
0.00810528
0.00749753
0.00688927
0.00220035
0.00210484
0.00197331
0.00181937
0.00166255
0.00151338
0.00484849
0.00465217
0.00459728
0.00463712
0.00471558
0.00477995
0.0168117
0.0156417
0.0139639
0.0119131
0.00960334
0.00724366
0.00404295
0.00391623
0.00373258
0.00356732
0.00336621
0.00308376
0.00264878
0.00252849
0.00240813
0.00229509
0.00220821
0.00213446
0.00241695
0.00229719
0.00219791
0.00211477
0.00204637
0.00197077
0.00239195
0.00230285
0.00225346
0.00220396
0.00213497
0.00204346
0.00247295
0.00245646
0.00245965
0.00240398
0.00232151
0.00222915
0.00274964
0.00275825
0.0026085
0.00245597
0.00238206
0.00315121
0.00301482
0.00258625
0.00227402
0.00219915
0.00355302
0.00294265
0.00213198
0.00171144
0.00161566
0.00370531
0.00233971
0.00148796
0.00124324
0.00123082
0.0034479
0.00147958
0.00104481
0.00107058
0.00115423
0.00346679
0.000475762
0.000364045
0.000399628
0.00041552
0.0073479
0.00593926
0.00575978
0.00599914
0.00649986
0.00819169
0.031846
0.439706
1.4686
4.77008
6.69037
7.47929
7.44924
1.13615
1.75392
1.69895
1.66695
1.66779
0.899348
0.773044
0.389272
0.330177
0.32463
0.827875
0.621553
0.228368
0.182097
0.165412
0.805147
0.782616
0.319063
0.24323
0.214782
0.672873
1.04716
0.785562
0.664045
0.609176
0.351244
0.666352
0.741714
0.735582
0.696417
0.131648
0.256031
0.281505
0.299554
0.316951
0.0351269
0.0674132
0.0771938
0.0906608
0.104986
0.0187495
0.028721
0.0405043
0.0511788
0.0594574
0.0105265
0.0102338
0.00959972
0.00881581
0.00800389
0.00722893
0.00248383
0.00236602
0.00220221
0.00200927
0.00181325
0.00162808
0.00515193
0.00483512
0.00470479
0.00469735
0.00474718
0.00479708
0.0189758
0.0178219
0.0161115
0.0140009
0.0115855
0.00895145
0.00453231
0.00438731
0.00417304
0.00392308
0.0037172
0.00347264
0.00305648
0.00291796
0.00278491
0.00266098
0.00256125
0.00246966
0.00283049
0.00270355
0.00261387
0.00254722
0.00246181
0.00235998
0.0028317
0.002751
0.00272242
0.0026646
0.00257655
0.00246415
0.00295305
0.00295968
0.00295191
0.002856
0.00272255
0.00260287
0.00317799
0.00327308
0.00322376
0.00296352
0.00270007
0.00257963
0.00365337
0.00336811
0.00276253
0.00230724
0.0021707
0.00396255
0.00313142
0.00217476
0.00167457
0.00155382
0.00399544
0.00243721
0.00154082
0.00130215
0.00131083
0.00374259
0.00158082
0.00112497
0.00118381
0.00129686
0.00400852
0.000534317
0.000385935
0.000428511
0.000448595
0.00858406
0.00714026
0.0070388
0.00733053
0.00786142
0.009789
0.0366189
0.467172
1.31667
4.24312
6.01398
6.80946
6.77851
1.08248
1.75747
1.85232
1.86355
1.86313
0.859691
0.760605
0.430693
0.371603
0.367601
0.785378
0.580453
0.224097
0.175421
0.161259
0.763972
0.719387
0.305905
0.226982
0.201701
0.636517
0.930115
0.711463
0.595201
0.547366
0.350566
0.618242
0.687356
0.682773
0.64647
0.141782
0.259216
0.293246
0.311641
0.323742
0.0426421
0.0791743
0.0923051
0.108635
0.122074
0.0264577
0.0436498
0.0581099
0.0720007
0.0818174
0.0119039
0.0114958
0.0106688
0.00966131
0.00863625
0.00768243
0.00278776
0.00264987
0.00245553
0.00222452
0.0019877
0.00176413
0.00549517
0.00505964
0.00486118
0.00481453
0.00484221
0.00488169
0.0212153
0.0200526
0.018292
0.016162
0.0136883
0.010838
0.00511362
0.00493372
0.00468476
0.00440785
0.00414892
0.00389217
0.0035322
0.0033718
0.00323193
0.00311977
0.00299036
0.00285302
0.00330915
0.00317718
0.00310441
0.00302126
0.00291516
0.00278395
0.00333859
0.00327213
0.00322895
0.00314989
0.0030304
0.00288705
0.00349816
0.0034936
0.00345912
0.00330739
0.00310363
0.00293978
0.00375953
0.00381196
0.00368446
0.00330486
0.00291676
0.00273031
0.00406991
0.00414913
0.00371546
0.00294728
0.00235422
0.00214881
0.00436854
0.00334468
0.00226241
0.00169103
0.0015459
0.00432111
0.00258439
0.0016348
0.00140092
0.00143208
0.00412121
0.00171939
0.00122156
0.00131315
0.001459
0.00469593
0.000608433
0.000412528
0.000462082
0.000486384
0.010405
0.00902619
0.0089464
0.00926113
0.00982262
0.012082
0.042322
0.486696
1.18622
3.74964
5.33432
6.06554
6.03507
1.02486
1.74146
1.972
2.03563
2.03352
0.819507
0.755905
0.476423
0.418885
0.416148
0.742053
0.548925
0.222916
0.171717
0.159753
0.718624
0.663376
0.294428