/*--------------------------------*- C++ -*----------------------------------*\
| =========                 |                                                 |
| \\      /  F ield         | OpenFOAM: The Open Source CFD Toolbox           |
|  \\    /   O peration     | Version:  2.3.1                                 |
|   \\  /    A nd           | Web:      www.OpenFOAM.org                      |
|    \\/     M anipulation  |                                                 |
\*---------------------------------------------------------------------------*/
FoamFile
{
    version     2.0;
    format      ascii;
    class       volScalarField;
    location    "600";
    object      k;
}
// * * * * * * * * * * * * * * * * * * * * * * * * * * * * * * * * * * * * * //

dimensions      [0 2 -2 0 0 0 0];

internalField   nonuniform List<scalar> 
6852
(
0.033591
0.0296153
0.0261188
0.0231795
0.0208286
0.0190369
0.0281518
0.0250477
0.0224884
0.020409
0.0187905
0.0175741
0.0211857
0.0193072
0.0178227
0.016673
0.0158048
0.0166559
0.0154465
0.0144744
0.0137168
0.0131395
0.0156729
0.0145954
0.0136596
0.012898
0.0122875
0.0191585
0.017954
0.0169497
0.0161642
0.0155654
0.0235041
0.0222424
0.0212221
0.0204461
0.0198735
0.0288911
0.0276451
0.026664
0.0259293
0.0253966
0.0355537
0.0343804
0.0334698
0.0327871
0.0322929
0.0436755
0.0426457
0.0418487
0.0412399
0.0407932
0.0536661
0.0528684
0.0522407
0.0517368
0.051354
0.0663402
0.0658391
0.0654202
0.0650421
0.064732
0.0817027
0.0816532
0.0815477
0.0813622
0.0811636
0.098882
0.0994543
0.0997924
0.0998984
0.0998728
0.115663
0.116762
0.11749
0.117916
0.118094
0.128018
0.12971
0.130905
0.131709
0.132134
0.13481
0.137046
0.138682
0.139838
0.140496
0.136045
0.138693
0.140667
0.142086
0.142913
0.132666
0.135562
0.13774
0.139305
0.140212
0.126096
0.129097
0.131357
0.13296
0.133858
0.117798
0.120814
0.123074
0.124639
0.125462
0.10898
0.111987
0.114218
0.115712
0.11642
0.100482
0.103512
0.105735
0.107164
0.107748
0.0927784
0.0959099
0.0981806
0.0995803
0.100054
0.0860432
0.0893821
0.0917818
0.0932083
0.0936028
0.0801622
0.0838699
0.0865054
0.0880225
0.088387
0.0749513
0.0790915
0.0821067
0.083789
0.0842
0.0831779
0.0700711
0.0746962
0.0780885
0.0800265
0.0806069
0.0795545
0.065135
0.0701895
0.0738547
0.0760541
0.0770235
0.0761714
0.0596642
0.0648524
0.0684612
0.0706409
0.0724169
0.0722417
0.0533324
0.058119
0.0608898
0.0622354
0.0657211
0.0671295
0.0460338
0.0494817
0.0500649
0.049606
0.0556177
0.0601069
0.0379801
0.0391115
0.035407
0.0321215
0.0413535
0.0510218
0.0311524
0.0309193
0.0300915
0.0338042
0.0363848
0.0454212
0.0276421
0.029503
0.0318766
0.0363594
0.0409591
0.0478417
0.0266181
0.0288011
0.0313539
0.0350676
0.0401431
0.0472888
0.0248769
0.0264
0.0280442
0.0304703
0.0351649
0.0428289
0.0220807
0.0225782
0.0230773
0.0244799
0.0280069
0.0356279
0.0191364
0.0187554
0.0182481
0.0189878
0.021071
0.0280616
0.0173793
0.0164134
0.0150952
0.0151786
0.0162762
0.0219615
0.0198868
0.0181516
0.0154325
0.0139793
0.0152364
0.020671
0.0266574
0.0235708
0.0209534
0.0188133
0.0171218
0.0158482
0.0130396
0.0124254
0.0119443
0.0115612
0.0112552
0.0110247
0.0105671
0.0105375
0.0104847
0.0104254
0.0103679
0.0103271
0.0107292
0.0107698
0.0108201
0.0108352
0.0108499
0.0118937
0.0123092
0.0126302
0.012858
0.0130474
0.0158898
0.0162917
0.0165994
0.0167982
0.0169617
0.0200692
0.0204767
0.0207665
0.02094
0.0210794
0.0234161
0.0238167
0.024096
0.0242608
0.0243938
0.026208
0.0266045
0.0268835
0.0270499
0.0271834
0.0284044
0.028807
0.0290975
0.0292773
0.0294199
0.0295092
0.0299471
0.0302696
0.0304753
0.0306336
0.0291465
0.0296256
0.0299817
0.030214
0.0303876
0.0284994
0.0289849
0.0293498
0.0295911
0.0297684
0.0282102
0.0287018
0.0290721
0.0293178
0.0294949
0.0283687
0.0290435
0.0295484
0.0298568
0.0300667
0.0297423
0.0305874
0.0312147
0.0315966
0.0318474
0.0314306
0.0323801
0.033085
0.033529
0.0338188
0.0327183
0.0337521
0.0345275
0.035034
0.0353685
0.0333537
0.034439
0.0352619
0.0358167
0.0361913
0.0333191
0.0344166
0.0352572
0.0358377
0.0362408
0.0327443
0.0338194
0.0346493
0.0352325
0.0356501
0.0318235
0.0328527
0.0336522
0.0342207
0.0346405
0.0307554
0.0317304
0.0324905
0.0330355
0.0334486
0.0297114
0.0306412
0.0313651
0.0318864
0.0322876
0.0288254
0.0297385
0.0304431
0.0309493
0.0313366
0.028193
0.0291467
0.0298675
0.0303773
0.0307499
0.0278847
0.0289723
0.0297734
0.0303182
0.0306765
0.0279469
0.0293208
0.0303039
0.0309404
0.0312859
0.0311956
0.0283853
0.0302945
0.0316314
0.0324509
0.0327925
0.0324663
0.0291755
0.0319426
0.0339062
0.0350586
0.0354317
0.0347558
0.0302111
0.0344028
0.0373672
0.0391265
0.0395534
0.0383533
0.0311857
0.0373121
0.041671
0.044356
0.0449708
0.0431855
0.0309826
0.0378847
0.0429603
0.0478997
0.0470842
0.0456656
0.0294104
0.0361214
0.0433201
0.0481626
0.0480363
0.0458238
0.0273471
0.0339166
0.0396626
0.0424686
0.0449533
0.045233
0.0250884
0.029048
0.0340916
0.03656
0.0363228
0.0380911
0.0215997
0.0234053
0.028633
0.0304
0.0277201
0.0285915
0.0178828
0.0183435
0.0230794
0.0248918
0.0212635
0.0209056
0.0150033
0.015316
0.0188975
0.0213051
0.0188476
0.0181734
0.0139199
0.0143809
0.0163804
0.0185992
0.0185366
0.0194787
0.0208484
0.0198529
0.0169041
0.0140352
0.0182935
0.0275311
0.0274771
0.0242097
0.0215136
0.0193644
0.0176909
0.0164462
0.0105665
0.0103063
0.0100992
0.00992932
0.00979264
0.0096891
0.0100171
0.00986086
0.00968629
0.00954086
0.00942162
0.00933689
0.00803443
0.00786513
0.0077308
0.00770371
0.00766337
0.00764034
0.00700172
0.00735964
0.00765275
0.0078684
0.00804751
0.0105266
0.0109633
0.0113131
0.0115406
0.0117277
0.0148291
0.0152983
0.01565
0.015858
0.0160243
0.0182314
0.0187152
0.0190724
0.0192779
0.0194401
0.0210233
0.0215378
0.0219214
0.0221435
0.0223151
0.0231106
0.0236727
0.0240964
0.0243496
0.0245422
0.0233145
0.0239593
0.0244464
0.0247447
0.024967
0.0216676
0.0223199
0.0228128
0.0231239
0.0233576
0.020126
0.0206775
0.0211092
0.0213897
0.021605
0.0192613
0.0197083
0.0200739
0.0203181
0.0205095
0.0189855
0.0193618
0.0196808
0.0199009
0.0200719
0.0190642
0.0194027
0.0196928
0.0199016
0.0200572
0.0192756
0.0196467
0.0199568
0.0201836
0.0203395
0.0195159
0.0199197
0.020244
0.0204872
0.0206394
0.0196185
0.0200506
0.0203922
0.0206527
0.0207999
0.0195256
0.019984
0.020343
0.0206183
0.0207577
0.0192478
0.0197277
0.0201017
0.0203875
0.0205151
0.0188276
0.0193251
0.0197075
0.0199979
0.02011
0.0183179
0.0188295
0.0192156
0.0195025
0.0195971
0.0177708
0.0182905
0.0186788
0.0189586
0.0190372
0.0172408
0.0177666
0.0181578
0.0184295
0.0184977
0.0167957
0.0173362
0.0177319
0.0179979
0.0180653
0.0165138
0.0171021
0.0175166
0.0177888
0.0178685
0.0164972
0.0172314
0.0177123
0.0180225
0.0181271
0.0168894
0.0179753
0.0186625
0.0190814
0.0192133
0.0190047
0.0178725
0.0197337
0.0209024
0.0215958
0.0217328
0.0212417
0.0196915
0.0234423
0.0258931
0.0274078
0.0273382
0.0260008
0.022707
0.0308316
0.0365
0.0401404
0.0391626
0.0357417
0.0254247
0.037872
0.0480651
0.0568438
0.0519127
0.0455299
0.0269509
0.0422234
0.0583119
0.0709607
0.062189
0.0521565
0.0270181
0.0430782
0.0614347
0.0664151
0.0619531
0.0533009
0.0258072
0.0404951
0.0572622
0.0586865
0.0493085
0.0461927
0.0234389
0.0341774
0.0506746
0.0492105
0.0361664
0.0329122
0.0189987
0.0243569
0.0384698
0.0366822
0.0239814
0.0202818
0.0159272
0.0188682
0.0298449
0.029659
0.0196222
0.0163268
0.0144803
0.0159485
0.0219814
0.024657
0.0202952
0.0185682
0.0227969
0.0229557
0.0201909
0.0164641
0.0267884
0.0372512
0.0306098
0.027553
0.0247704
0.0222953
0.0203106
0.018837
0.0109484
0.0103055
0.00989384
0.00968923
0.00955278
0.00944617
0.0124038
0.0118202
0.0112819
0.0108623
0.010531
0.0102882
0.00753208
0.00713117
0.0068077
0.00668297
0.00656913
0.00649498
0.00413482
0.00429896
0.00443397
0.00456407
0.00466501
0.0047511
0.00639635
0.00667348
0.00690474
0.00705167
0.00717319
0.00977506
0.0101162
0.010379
0.0105249
0.0106404
0.0124606
0.0128455
0.0131377
0.0132945
0.0134155
0.0146731
0.0151319
0.0154816
0.0156732
0.0158169
0.0162549
0.016802
0.0172157
0.0174533
0.0176286
0.0154383
0.0160745
0.0165471
0.0168295
0.0170374
0.0143475
0.0149081
0.0153089
0.0155525
0.0157443
0.0140164
0.0144676
0.0147765
0.0149433
0.0151111
0.0142883
0.0146297
0.0148809
0.0150167
0.0151589
0.01508
0.0154731
0.0157633
0.0159377
0.0160907
0.0161667
0.0167525
0.0171647
0.017427
0.0176087
0.0173255
0.0182221
0.0188334
0.0192323
0.0194603
0.0183813
0.0196275
0.0204587
0.0210081
0.0212794
0.0192074
0.0207701
0.0217972
0.0224834
0.0227823
0.0197379
0.0215457
0.0227398
0.0235383
0.0238417
0.0199529
0.0219457
0.0232695
0.0241544
0.024443
0.0198807
0.0220102
0.0234315
0.0243751
0.0246371
0.0195904
0.0217962
0.0232899
0.0242661
0.0244939
0.0191545
0.0213689
0.0229133
0.0238911
0.0240777
0.0186258
0.0207887
0.0223478
0.023296
0.0234319
0.0180431
0.0201161
0.0216273
0.0225166
0.0225976
0.0174501
0.0194077
0.0208184
0.0216321
0.0216761
0.0169604
0.0188577
0.0201659
0.02092
0.0209456
0.0167686
0.0188345
0.0201451
0.020908
0.0209277
0.0172687
0.0201761
0.0217859
0.0227306
0.0227446
0.022356
0.0194118
0.0271637
0.0313453
0.0335017
0.0332161
0.0315867
0.0265137
0.0403958
0.0460769
0.0505082
0.0489389
0.0454903
0.0329435
0.0501466
0.0571911
0.0664594
0.0605079
0.0544764
0.0368127
0.0574034
0.0699381
0.0876741
0.0730618
0.0622025
0.0378974
0.0603479
0.0803283
0.0909146
0.0779958
0.0650371
0.0367291
0.0598073
0.0830669
0.0864137
0.0678813
0.0603189
0.0342128
0.0582783
0.0836863
0.0844272
0.0612841
0.0531275
0.0243214
0.040913
0.0647224
0.0653637
0.0447495
0.0360459
0.0176493
0.0234643
0.038573
0.041343
0.0254989
0.019297
0.0155284
0.0179334
0.0261408
0.0313876
0.0234349
0.0197416
0.0229303
0.0247924
0.0236558
0.020141
0.0298678
0.0403542
0.0302227
0.0275636
0.0249845
0.0226362
0.0206851
0.019186
0.0140657
0.0130632
0.0122052
0.0115068
0.0109536
0.0105391
0.0158613
0.0150572
0.014233
0.013412
0.0127359
0.012218
0.00768538
0.00716871
0.00675694
0.00659766
0.00645774
0.00636571
0.00336684
0.00332477
0.00329027
0.00329781
0.00330563
0.00331779
0.00389172
0.00420124
0.00431278
0.00441178
0.00446976
0.00451835
0.00643301
0.00662198
0.00676691
0.00683753
0.00689134
0.00820418
0.00845308
0.00863879
0.00872769
0.00879269
0.00965174
0.00999095
0.010242
0.0103706
0.0104632
0.0106965
0.011127
0.0114398
0.0116145
0.0117387
0.00949436
0.00989606
0.0101819
0.010357
0.0104855
0.0117421
0.0120945
0.0123115
0.0124278
0.0125263
0.0138446
0.0143774
0.0145051
0.0143648
0.0145015
0.0157325
0.0159552
0.0159123
0.0156414
0.0155794
0.0172288
0.0177428
0.0180801
0.0180732
0.0180465
0.0182022
0.0189279
0.0196455
0.0200945
0.020459
0.0186988
0.0197585
0.0209371
0.0218207
0.0224843
0.0188155
0.0201746
0.0217683
0.0230664
0.023882
0.0187223
0.0203323
0.0222527
0.0238523
0.0247032
0.0185368
0.0203361
0.022493
0.024279
0.0250923
0.0183246
0.0202558
0.0225765
0.0244312
0.0252322
0.018119
0.0201344
0.0225671
0.0244471
0.0252681
0.0179426
0.0199966
0.0225152
0.0244311
0.025301
0.0177847
0.0198573
0.022454
0.0244619
0.0253964
0.0176532
0.0197309
0.022389
0.0245798
0.0255795
0.01757
0.0196581
0.0224091
0.0248016
0.0258394
0.0175636
0.0196845
0.0225474
0.0251998
0.0262179
0.0176894
0.0199794
0.023053
0.0260576
0.0270192
0.0180653
0.0207442
0.0240619
0.0274371
0.0283227
0.0191032
0.0235996
0.0279382
0.0319596
0.0329495
0.023432
0.0341374
0.0401805
0.0461188
0.0470909
0.0446771
0.0343144
0.0707509
0.0827088
0.0901042
0.0898034
0.0886986
0.0407983
0.0901979
0.113464
0.127103
0.120808
0.115906
0.0454555
0.101193
0.135083
0.163413
0.141792
0.128279
0.0479076
0.107505
0.157433
0.187421
0.155716
0.132085
0.0480124
0.11425
0.18055
0.194795
0.156484
0.132864
0.0507858
0.122522
0.171592
0.172702
0.134018
0.119043
0.0381372
0.0658834
0.0869684
0.0918285
0.0672721
0.0563598
0.0223039
0.0302938
0.0455585
0.0539822
0.0376661
0.0284434
0.018311
0.0209479
0.0267671
0.0331563
0.0287482
0.0259529
0.024269
0.0259483
0.024733
0.0220372
0.0282699
0.0388599
0.0312003
0.0285646
0.0258285
0.0232348
0.0209873
0.0191948
0.0247098
0.0224594
0.0202594
0.018228
0.0164838
0.015098
0.0222919
0.0199214
0.0177111
0.0157211
0.0140127
0.0126324
0.0071384
0.00684043
0.00655969
0.00642271
0.00630299
0.00622575
0.00289967
0.00284386
0.00279683
0.00277268
0.00275371
0.00274076
0.00300321
0.00313039
0.0031545
0.00316999
0.00317244
0.00317418
0.00405304
0.00438714
0.00447969
0.00453529
0.00455262
0.00456208
0.00535374
0.00550502
0.00559722
0.00563227
0.00565287
0.00609814
0.00631353
0.00644934
0.00651302
0.00655483
0.00688584
0.00717013
0.00735576
0.00746276
0.00753423
0.00636899
0.00650571
0.00659363
0.0066519
0.00669223
0.0158685
0.0162567
0.0164197
0.0164686
0.0165055
0.0200967
0.0195056
0.0180014
0.0158679
0.0146758
0.0328416
0.0250888
0.0189902
0.0142662
0.0110959
0.0377392
0.0286666
0.0215521
0.0158039
0.0117319
0.0377299
0.0280757
0.0205915
0.0147492
0.0105917
0.0371451
0.0276641
0.0203752
0.0146224
0.0100551
0.0370131
0.0279881
0.0209549
0.0153416
0.0109806
0.0373413
0.0288613
0.0221457
0.0167263
0.0128336
0.0381448
0.0302472
0.0238696
0.0186675
0.0153387
0.0394498
0.0321524
0.0261245
0.0211966
0.01844
0.0412963
0.0346261
0.0289697
0.0243051
0.0222282
0.0437406
0.0377639
0.0325213
0.0281537
0.0268011
0.0469026
0.0417187
0.0369985
0.0330099
0.0323416
0.0508956
0.0467169
0.0427586
0.0392925
0.0392228
0.0558309
0.0530244
0.0501358
0.0475876
0.04799
0.0619119
0.0611322
0.0598549
0.0586259
0.0593356
0.0691227
0.0711317
0.0721545
0.0727998
0.0736367
0.0781205
0.0851206
0.0901241
0.0937503
0.0946165
0.0876604
0.0988529
0.10779
0.115519
0.116427
0.101286
0.132067
0.153433
0.169742
0.170797
0.121975
0.135745
0.136675
0.143991
0.144177
0.142438
0.127153
0.136466
0.142028
0.150835
0.146574
0.147688
0.123821
0.13702
0.152007
0.172355
0.154135
0.151173
0.116126
0.137227
0.172471
0.199897
0.167472
0.152552
0.10509
0.142023
0.200361
0.211952
0.178054
0.157416
0.0808243
0.145915
0.184862
0.181538
0.157303
0.151748
0.0433867
0.0694851
0.0941497
0.109501
0.100365
0.0941435
0.0292642
0.0353728
0.0420191
0.0488575
0.0479805
0.0507379
0.0238333
0.0274237
0.0294405
0.0320604
0.0349504
0.0407259
0.0261441
0.0275091
0.0259309
0.0245503
0.0281022
0.0371438
0.00565923
0.0056171
0.00560315
0.00559251
0.00558479
0.00558043
0.00248417
0.00244863
0.00243589
0.0024158
0.00240108
0.00238849
0.00250506
0.00253808
0.00254352
0.00252471
0.00250621
0.00248923
0.00298592
0.00313719
0.00318531
0.00318779
0.00317696
0.00316353
0.00329013
0.00351648
0.00359864
0.00362181
0.00362233
0.0036166
0.00371996
0.00381569
0.00385328
0.0038658
0.00387016
0.00383414
0.00394325
0.00400126
0.00403682
0.00406141
0.0058517
0.00587458
0.00588805
0.005897
0.00590507
0.184039
0.176596
0.185034
0.185318
0.176404
0.14261
0.150826
0.147365
0.148883
0.176772
0.151359
0.170255
0.153782
0.151228
0.177317
0.170025
0.195704
0.165541
0.151772
0.183753
0.195868
0.207257
0.175382
0.156108
0.198648
0.234592
0.231372
0.202246
0.194774
0.00286698
0.00286507
0.00286343
0.00286237
0.00286127
0.00286056
0.00219481
0.00216325
0.00216045
0.00214437
0.00213371
0.00212406
0.00215522
0.0021322
0.00213345
0.00210802
0.00208909
0.00207202
0.00238197
0.00240426
0.00242191
0.00240155
0.00238383
0.00236678
0.00246781
0.00251625
0.00254822
0.00253791
0.00252748
0.00251588
0.0025603
0.00260829
0.00264439
0.00264339
0.00264111
0.00263634
0.00223767
0.00225929
0.00226023
0.00226182
0.00226148
0.00284531
0.00284602
0.00284636
0.00284612
0.00284609
0.342962
0.297615
0.306033
0.306674
0.296958
0.144005
0.148249
0.145113
0.294517
0.149537
0.16338
0.148722
0.148834
0.296046
0.167313
0.186547
0.160041
0.149749
0.309665
0.194036
0.201006
0.171746
0.156853
0.36768
0.379483
0.374587
0.333704
0.323007
0.00640041
0.00684692
0.00702446
0.00695826
0.00669254
0.00627596
0.00567062
0.00613648
0.0063931
0.00643307
0.00627583
0.00595706
0.00622091
0.00656402
0.00669809
0.0066409
0.00641612
0.00605357
0.00347606
0.0029912
0.00259505
0.0021748
0.0016956
0.00469729
0.00424079
0.00385568
0.00345279
0.00297612
0.00583998
0.00547312
0.00513051
0.00473941
0.00424844
0.00671297
0.00640217
0.00608228
0.00569068
0.00517986
0.00746207
0.0072019
0.00690716
0.00651514
0.00598013
0.0080729
0.00785636
0.00759338
0.00719785
0.00664108
0.0084861
0.00827728
0.00801784
0.0076398
0.00711671
0.00860805
0.00829581
0.00806693
0.00775794
0.00733862
0.00832399
0.00776979
0.00762765
0.00746486
0.00726011
0.00767541
0.00608554
0.00579841
0.00542631
0.00529574
0.00701976
0.00351435
0.00307008
0.00292398
0.00287666
0.00613957
0.0021853
0.00210127
0.00209742
0.00209757
0.00753285
0.00815876
0.00874044
0.00962673
0.0111672
0.0140922
0.0215
0.0494454
0.188335
0.811777
0.559826
0.530533
0.531787
0.175906
0.37166
0.153208
0.147428
0.14501
0.15358
0.335474
0.14304
0.148662
0.13669
0.14272
0.336073
0.158628
0.168199
0.146655
0.122358
0.362964
0.18817
0.187503
0.162209
0.155111
0.137113
0.51688
0.421843
0.407291
0.371425
0.370361
0.0476962
0.149261
0.15262
0.156765
0.151052
0.150354
0.0208345
0.0324305
0.0396259
0.0441838
0.0442032
0.0419675
0.0123887
0.0130955
0.0134954
0.0145454
0.0153451
0.0168145
0.0113638
0.0113887
0.0106688
0.0106483
0.0127327
0.015176
0.00587157
0.00645031
0.00682304
0.00697202
0.0069081
0.00666063
0.00343339
0.0033728
0.00335918
0.0033575
0.00334365
0.00330376
0.00562085
0.00600913
0.00627182
0.00639509
0.0063736
0.0062115
0.00353467
0.00309149
0.00265892
0.00225443
0.00181653
0.00428453
0.0040867
0.00385754
0.00358338
0.00326159
0.00481961
0.00464243
0.00443645
0.0041887
0.00389496
0.00522934
0.00502884
0.00480763
0.00455628
0.00427022
0.00550236
0.00526311
0.00501077
0.00474235
0.00445489
0.00567809
0.0053975
0.0051102
0.00483164
0.00455542
0.00579391
0.00548771
0.00521684
0.00495613
0.00468377
0.00590254
0.00570099
0.00548985
0.00526792
0.00499931
0.00619796
0.00638301
0.00628806
0.00614183
0.00584921
0.00690259
0.00745893
0.00642971
0.00567661
0.00526198
0.00781135
0.00561233
0.0040013
0.00359499
0.00350518
0.00739429
0.00295051
0.00264174
0.00260298
0.00262291
0.00724944
0.00720797
0.00738012
0.00780984
0.00858675
0.0100494
0.0148584
0.0506549
0.29675
1.08418
0.785499
0.71565
0.717403
0.269383
0.395521
0.17252
0.157031
0.155128
0.234547
0.316145
0.138685
0.140318
0.129843
0.216997
0.313673
0.152072
0.157237
0.138377
0.208025
0.35095
0.182229
0.177685
0.154965
0.220736
0.543643
0.394301
0.371189
0.342013
0.350957
0.0736585
0.234297
0.238017
0.232089
0.225493
0.231468
0.0162884
0.0360508
0.0446234
0.0484536
0.0457029
0.0417647
0.00765848
0.00930075
0.0122128
0.0151183
0.0129275
0.0107017
0.00995559
0.00996676
0.00899968
0.00896123
0.011753
0.0141581
0.00662643
0.00721415
0.00765174
0.00790307
0.00795471
0.00781352
0.00366852
0.00352051
0.00340412
0.0033045
0.0032157
0.00312729
0.00596764
0.00635247
0.00668644
0.0069333
0.00706189
0.00705195
0.00617071
0.00558975
0.00496972
0.00430294
0.00353069
0.00276999
0.00545496
0.00519958
0.00488313
0.00449616
0.00404856
0.00578194
0.00555497
0.00528983
0.00497589
0.0046112
0.00608847
0.00583013
0.00554969
0.00524134
0.00490272
0.00630589
0.00599743
0.00567579
0.00534628
0.00501071
0.00648576
0.00612449
0.00575514
0.0054083
0.0050806
0.00668816
0.00632162
0.00596767
0.00563581
0.00530529
0.00703655
0.0068804
0.00664415
0.00639217
0.00603827
0.00782552
0.00832208
0.00807122
0.00767745
0.00716911
0.00921724
0.00913756
0.00714899
0.00603328
0.00548633
0.0100206
0.00640102
0.00456436
0.00418644
0.00413353
0.00859781
0.0032032
0.00306776
0.00310543
0.00314713
0.00796536
0.00761236
0.00763332
0.00795776
0.0086226
0.00992478
0.0160739
0.069937
0.39478
1.24225
1.02821
0.930835
0.932872
0.339584
0.427677
0.210075
0.182142
0.180845
0.29052
0.30161
0.136477
0.134111
0.124984
0.26838
0.294273
0.146126
0.147567
0.130994
0.263247
0.341556
0.177088
0.168691
0.148264
0.269122
0.541323
0.37204
0.340813
0.316325
0.111635
0.287083
0.288156
0.276567
0.270551
0.280158
0.0310434
0.0655329
0.072877
0.0754443
0.0738581
0.0738189
0.00957815
0.0131302
0.0183482
0.0224262
0.0187476
0.0155052
0.0101403
0.00994022
0.00881568
0.0095739
0.0132327
0.0154432
0.00743787
0.00790408
0.00824438
0.00843695
0.00846916
0.00833944
0.00401932
0.00383527
0.00368029
0.00354258
0.0034148
0.00329147
0.00620424
0.00650001
0.00679618
0.00705623
0.00723881
0.00730882
0.00855783
0.00786196
0.00701595
0.00607525
0.00505453
0.00394719
0.00692594
0.00669141
0.006399
0.00602833
0.00556778
0.00501533
0.00681106
0.00656052
0.00626636
0.00591457
0.00549689
0.00702473
0.00675111
0.00645088
0.00611707
0.00574413
0.00719279
0.00688362
0.00655375
0.00621032
0.00585651
0.0073885
0.00705494
0.00670538
0.00637851
0.00604525
0.00770407
0.0074582
0.00717624
0.00688481
0.00654438
0.00834227
0.00843422
0.00831209
0.00811593
0.00772617
0.00959706
0.0100952
0.00936546
0.00865407
0.008085
0.0111776
0.00986413
0.00738899
0.00620743
0.00569588
0.0113476
0.00680361
0.0050534
0.00479761
0.00480755
0.00917905
0.00343549
0.00344818
0.00356268
0.00360288
0.00842398
0.00785198
0.00773086
0.00792068
0.00843222
0.00966119
0.0178062
0.0890339
0.468334
1.31704
1.25244
1.16211
1.16377
0.386939
0.461841
0.264847
0.225798
0.225123
0.327923
0.292283
0.137448
0.130901
0.123
0.303099
0.278283
0.140937
0.13913
0.124519
0.299325
0.333448
0.172783
0.160534
0.142134
0.295992
0.522499
0.353558
0.31544
0.294223
0.141872
0.312512
0.31571
0.301882
0.29576
0.0473191
0.0964916
0.0987011
0.0997397
0.102189
0.108077
0.0133514
0.0202279
0.0273099
0.0318836
0.0289609
0.0265235
0.0103057
0.0100491
0.00929212
0.0120009
0.0152862
0.0170149
0.00826179
0.00857677
0.0087495
0.00880142
0.00873409
0.00854831
0.00437697
0.00415202
0.0039522
0.00377073
0.00360365
0.00344736
0.0064182
0.00659323
0.00680477
0.00702083
0.00719752
0.00729292
0.0109162
0.010125
0.00909553
0.00791794
0.00662255
0.0052375
0.0081068
0.00785933
0.00754375
0.00713935
0.00663052
0.00600891
0.00803663
0.00781055
0.00755267
0.00724585
0.00687461
0.00642602
0.00794062
0.00768384
0.00739365
0.00706242
0.0066822
0.00805871
0.00780463
0.00752213
0.0072164
0.00691102
0.00828529
0.00807408
0.00786339
0.0076119
0.00730789
0.00878004
0.00878805
0.00866136
0.00846486
0.00813206
0.00977287
0.0100821
0.00989023
0.00962446
0.00928534
0.0112462
0.0111715
0.00983971
0.00886698
0.0083374
0.0125796
0.0101366
0.00745393
0.00633902
0.00592645
0.0120965
0.00702969
0.00549757
0.00539687
0.00548097
0.00949787
0.0035685
0.00365588
0.00381323
0.00384546
0.00861067
0.00781882
0.00756495
0.00764349
0.00804209
0.00928287
0.0194526
0.10652
0.515543
1.34252
1.43085
1.38358
1.38419
0.416893
0.496086
0.332594
0.28816
0.288023
0.34996
0.288282
0.142416
0.131625
0.124852
0.325611
0.265874
0.13669
0.131914
0.118998
0.322468
0.32594
0.169342
0.153237
0.136616
0.309739
0.495369
0.337931
0.294507
0.27564
0.164873
0.322325
0.329548
0.315336
0.305759
0.0629728
0.121009
0.121569
0.122998
0.131257
0.0183586
0.0290251
0.0372826
0.0425521
0.0416821
0.0403344
0.0108929
0.0111623
0.0119577
0.0156681
0.0185804
0.019897
0.00912981
0.00928524
0.00927734
0.00916064
0.00895633
0.00867422
0.00475286
0.00448378
0.00423489
0.00400329
0.00379011
0.00359418
0.00664133
0.00669043
0.00680827
0.00696352
0.00711025
0.00720288
0.0130309
0.0122004
0.0110638
0.00972193
0.00820916
0.00657265
0.00923774
0.00897323
0.00863592
0.00820592
0.00766382
0.00699542
0.00904323
0.00882397
0.00856624
0.00825384
0.00787179
0.00740552
0.009077
0.00889466
0.00868019
0.00842738
0.00812616
0.00776441
0.00901098
0.00886238
0.00867224
0.00848701
0.00821009
0.00935555
0.00935999
0.00929995
0.00913021
0.00884353
0.0100786
0.0102997
0.0102428
0.0100851
0.00979773
0.011275
0.011468
0.0109282
0.010444
0.0101903
0.012718
0.0119136
0.0100126
0.00880096
0.00829037
0.0135944
0.010282
0.00753871
0.00652986
0.00622635
0.012577
0.00718284
0.00590494
0.00596301
0.00611861
0.00998012
0.00364749
0.0037691
0.00395231
0.00397911
0.00865739
0.00765913
0.00734724
0.00740907
0.00779155
0.00910372
0.0211559
0.122269
0.540239
1.338
1.54733
1.5615
1.56058
0.436132
0.529877
0.40699
0.364607
0.364848
0.362399
0.289211
0.151697
0.136907
0.131175
0.337298
0.256857
0.133557
0.125952
0.114511
0.335833
0.318598
0.166717
0.146811
0.131732
0.3155
0.465281
0.324333
0.277279
0.260096
0.181924
0.322983
0.333071
0.318986
0.307331
0.0772175
0.138649
0.142712
0.14592
0.154897
0.0244067
0.040299
0.0485951
0.0546617
0.0560614
0.0121491
0.0136829
0.0164085
0.0205652
0.0232452
0.0242255
0.0100413
0.0100489
0.00986632
0.00957643
0.00922139
0.00882284
0.00514963
0.004836
0.004537
0.00425294
0.00399012
0.0037499
0.00688297
0.00680795
0.00683581
0.00693055
0.00704196
0.00712112
0.014852
0.0140355
0.0128652
0.0114335
0.00977201
0.00794951
0.010363
0.0100667
0.00969932
0.00924408
0.00867772
0.00798094
0.0101016
0.00989587
0.00964689
0.00933788
0.00895594
0.00849045
0.0100723
0.00995517
0.00981752
0.00964055
0.00940357
0.00911302
0.010145
0.010143
0.0101474
0.0101409
0.0100207
0.00975614
0.0106514
0.0108622
0.0108843
0.0107764
0.0105145
0.0115841
0.0118467
0.0116569
0.0113838
0.011176
0.0128262
0.0127234
0.0117134
0.010883
0.0105808
0.014048
0.0125379
0.0101502
0.0087198
0.00820063
0.014399
0.010465
0.00772057
0.00681478
0.00661004
0.0129682
0.00735611
0.00627784
0.00648372
0.00670647
0.0104717
0.00366577
0.00382782
0.00403205
0.00405737
0.00886308
0.00768547
0.00741626
0.00755122
0.00797755
0.0093551
0.0229813
0.135145
0.544718
1.30861
1.59868
1.67041
1.66795
0.447953
0.564638
0.48167
0.447241
0.447685
0.369397
0.294596
0.165118
0.146788
0.142019
0.342549
0.250891
0.131669
0.121273
0.111129
0.342018
0.311272
0.164836
0.141237
0.127493
0.316306
0.435398
0.312193
0.263047
0.24712
0.194234
0.318355
0.330088
0.316799
0.304154
0.0898856
0.151564
0.160571
0.165082
0.171768
0.0312654
0.0517453
0.0606128
0.0677358
0.0717881
0.0143283
0.017697
0.0223601
0.0268338
0.0297236
0.0109947
0.0108747
0.01053
0.0100705
0.0095607
0.00903595
0.00556745
0.00521048
0.00486216
0.00452534
0.00421155
0.0039245
0.0071495
0.00695475
0.00689999
0.00693993
0.00701791
0.00708121
0.0163836
0.0156148
0.0144778
0.0130236
0.0112809
0.00934779
0.0115277
0.0111779
0.0107613
0.010278
0.00969452
0.00899327
0.011254
0.011061
0.0108302
0.0105498
0.0101905
0.00977479
0.0112338
0.0111836
0.0111398
0.0110751
0.0109583
0.0106562
0.0113733
0.0114944
0.0116665
0.0117499
0.0116803
0.0114327
0.0117935
0.0121677
0.0124774
0.012487
0.0123331
0.0121032
0.013187
0.0133846
0.0129513
0.0124335
0.0121787
0.0143563
0.0138866
0.0123934
0.0111752
0.010749
0.0152455
0.0131388
0.0103668
0.00873864
0.00818683
0.0150987
0.0107275
0.0080063
0.00719166
0.00707214
0.0133867
0.00755047
0.00661693
0.00696083
0.00724941
0.0110157
0.00366239
0.00386288
0.00408997
0.00411621
0.00943851
0.00818953
0.00802306
0.00824338
0.00869568
0.0101456
0.0250843
0.144371
0.533539
1.26186
1.59038
1.7051
1.70147
0.454134
0.597411
0.555411
0.528786
0.529279
0.373248
0.303744
0.182516
0.160989
0.157108
0.343909
0.247618
0.131139
0.117901
0.108908
0.343099
0.303992
0.163607
0.13648
0.123898
0.31402
0.407418
0.301153
0.251223
0.236288
0.202862
0.310902
0.323472
0.311213
0.298346
0.100945
0.161059
0.174639
0.179943
0.183821
0.0386925
0.0628899
0.0729126
0.0810774
0.0860222
0.017621
0.0234142
0.0294437
0.0344134
0.038032
0.0119864
0.011763
0.0112725
0.0106508
0.00998661
0.00933076
0.00600524
0.00560691
0.00521112
0.00482247
0.00445758
0.00412242
0.00744483
0.00713598
0.00700723
0.00699999
0.00704936
0.00709833
0.0177609
0.0170338
0.0159265
0.014504
0.0127846
0.0107652
0.0127533
0.0123365
0.0118672
0.0113507
0.0107677
0.0101212
0.0125456
0.0123568
0.0121512
0.0119206
0.0116655
0.0112327
0.0125834
0.0125939
0.012654
0.0127063
0.0125992
0.0123011
0.0128111
0.0130377
0.0133316
0.0134346
0.0133515
0.0131007
0.0133368
0.0138359
0.0141467
0.0140638
0.0137807
0.0135037
0.0141401
0.0148315
0.0148798
0.0141516
0.0133224
0.0129428
0.0158293
0.0149815
0.0130484
0.011447
0.0108534
0.0163534
0.0137495
0.0106875
0.00888961
0.00829123
0.0157842
0.0110587
0.00836839
0.00764218
0.00760061
0.0138981
0.00776189
0.00692549
0.0074067
0.00776389
0.0116552
0.00366967
0.00388698
0.00414357
0.00417185
0.0104687
0.00925852
0.00917002
0.00942138
0.00987079
0.0114246
0.0275312
0.150321
0.513562
1.20562
1.54012
1.67273
1.66839
0.456007
0.626095
0.627623
0.613994
0.614327
0.375219
0.315908
0.2039
0.179838
0.176767
0.34295
0.24669
0.132084
0.1159
0.107944
0.340705
0.296862
0.162938
0.1325
0.120936
0.309828
0.382093
0.290978
0.241338
0.227234
0.208677
0.302149
0.314991
0.303833
0.291216
0.110509
0.168083
0.185166
0.190478
0.192284
0.0464992
0.0734713
0.0853282
0.0944363
0.09867
0.0221681
0.0309498
0.0374539
0.0432074
0.0470527
0.0130105
0.0127113
0.0120948
0.0113215
0.0105061
0.00971724
0.00646137
0.00602415
0.0055838
0.00514671
0.00473099
0.00434691
0.007772
0.0073553
0.00716176
0.00711604
0.00714329
0.00718178
0.0191321
0.018427
0.0173329
0.0159608
0.0142884
0.0122296
0.0140697
0.0135744
0.0130535
0.0125308
0.0120073
0.0113144
0.0139855
0.0137925
0.013625
0.0134856
0.0132044
0.0127436
0.0141137
0.0141829
0.0143505
0.0143963
0.0142717
0.0139456
0.0144416
0.0147739
0.0150632
0.0151339
0.014988
0.0146872
0.0150594
0.0155633
0.0158141
0.0155878
0.0151187
0.0147391
0.0159156
0.0164893
0.016322
0.0152821
0.0141159
0.0135592
0.016814
0.0172631
0.0160284
0.0137087
0.0117547
0.0109763
0.0174393
0.01438
0.0110936
0.00916244
0.00851728
0.0165422
0.0114439
0.00877376
0.00814501
0.00818257
0.0145749
0.00799573
0.00721471
0.00783757
0.00826767
0.0125152
0.00369647
0.00391227
0.00419986
0.00422909
0.0119006
0.0108235
0.0107592
0.01101
0.0114505
0.0131452
0.0303197
0.15448
0.494083
1.14574
1.47476
1.61075
1.60588
0.45514
0.64947
0.693359
0.696552
0.696503
0.376058
0.330348
0.229132
0.20353
0.201184
0.340614
0.247778
0.134641
0.115387
0.108379
0.335731
0.290013
0.162748
0.129258
0.118598
0.304418
0.359606
0.28151
0.233037
0.219649
0.212369
0.293019
0.305753
0.295652
0.283571
0.118772
0.173313
0.192509
0.197864
0.198126
0.0546052
0.0836253
0.0977461
0.106696
0.109831
0.0284023
0.0392234
0.0462048
0.0527758
0.0563414
0.0140594
0.0137148
0.0129957
0.012085
0.0111244
0.010203
0.00693353
0.00646006
0.00597891
0.00549797
0.00503269
0.00459987
0.00813383
0.00761559
0.00736658
0.00729167
0.00730446
0.00733813
0.0205923
0.0198936
0.0188301
0.0175166
0.0158446