/*--------------------------------*- C++ -*----------------------------------*\
| =========                 |                                                 |
| \\      /  F ield         | OpenFOAM: The Open Source CFD Toolbox           |
|  \\    /   O peration     | Version:  2.3.1                                 |
|   \\  /    A nd           | Web:      www.OpenFOAM.org                      |
|    \\/     M anipulation  |                                                 |
\*---------------------------------------------------------------------------*/
FoamFile
{
    version     2.0;
    format      ascii;
    class       volScalarField;
    location    "600";
    object      nut;
}
// * * * * * * * * * * * * * * * * * * * * * * * * * * * * * * * * * * * * * //

dimensions      [0 2 -1 0 0 0 0];

internalField   nonuniform List<scalar> 
6852
(
0.00411582
0.00386458
0.00362928
0.00341898
0.00324097
0.00309844
0.00188394
0.00177705
0.00168381
0.00160408
0.00153916
0.00148851
0.00163431
0.00156018
0.001499
0.00144984
0.00141159
0.0014491
0.0013955
0.00135087
0.00131505
0.00128708
0.00140569
0.00135651
0.0013123
0.00127519
0.00124465
0.00155416
0.00150451
0.00146183
0.00142755
0.00140086
0.00172142
0.00167458
0.00163572
0.00160554
0.00158289
0.00190852
0.00186691
0.00183348
0.00180805
0.00178938
0.00211718
0.00208195
0.00205419
0.00203313
0.00201775
0.00234657
0.00231874
0.00229697
0.0022802
0.00226782
0.00260114
0.00258174
0.00256637
0.00255396
0.00254449
0.00289203
0.00288109
0.00287191
0.00286359
0.00285676
0.00320946
0.00320849
0.00320642
0.00320277
0.00319886
0.0035308
0.003541
0.00354702
0.0035489
0.00354844
0.00381867
0.00383676
0.0038487
0.00385568
0.00385858
0.00401744
0.0040439
0.0040625
0.00407495
0.00408152
0.00412264
0.0041567
0.00418143
0.00419882
0.00420868
0.00414147
0.00418159
0.00421124
0.00423243
0.00424473
0.00408972
0.00413412
0.0041672
0.00419081
0.00420442
0.00398718
0.00403435
0.00406949
0.00409425
0.00410806
0.00385374
0.00390278
0.00393911
0.00396407
0.00397713
0.0037067
0.00375749
0.00379474
0.00381947
0.00383115
0.00355925
0.00361252
0.0036511
0.00367568
0.0036857
0.00342009
0.00347733
0.00351826
0.00354325
0.00355167
0.00329361
0.00335691
0.00340167
0.00342801
0.00343525
0.00317906
0.00325175
0.00330245
0.00333128
0.00333817
0.003074
0.00315776
0.00321739
0.00325018
0.00325815
0.00323831
0.00297224
0.00306877
0.00313767
0.00317637
0.00318787
0.00316699
0.00286564
0.00297475
0.00305143
0.00309653
0.00311621
0.00309892
0.00274265
0.00285942
0.0029379
0.0029843
0.00302158
0.00301792
0.00259304
0.00270691
0.00277068
0.00280113
0.0028785
0.00290918
0.00240909
0.00249768
0.00251236
0.00250082
0.00264802
0.00275281
0.00218823
0.00222058
0.0021128
0.00201239
0.00228334
0.00253625
0.0019818
0.00197437
0.00194776
0.00206442
0.00214178
0.002393
0.00186681
0.00192862
0.0020047
0.00214103
0.00227242
0.00245594
0.0018319
0.00190554
0.0019882
0.00210265
0.00224967
0.0024417
0.00177097
0.00182438
0.00188034
0.00195998
0.00210557
0.00232371
0.00166848
0.00168717
0.00170572
0.00175679
0.00187909
0.00211938
0.00155326
0.00153772
0.00151678
0.00154722
0.00162988
0.00188092
0.00148024
0.00143851
0.00137954
0.00138334
0.00143249
0.00166397
0.00316685
0.00302553
0.00278973
0.00265513
0.00277195
0.00322869
0.00183326
0.00172386
0.00162533
0.00154009
0.00146923
0.00141353
0.00150674
0.00153526
0.0015621
0.00158433
0.00160334
0.00161914
0.00172446
0.00177242
0.00181183
0.00184386
0.00186885
0.00188859
0.00177525
0.00183824
0.00189069
0.00193078
0.00196185
0.00255595
0.00272773
0.00286269
0.00297044
0.00305829
0.00392884
0.00414414
0.00430802
0.00443178
0.00453019
0.00500836
0.00523192
0.00539476
0.00551314
0.00560517
0.00564781
0.00586504
0.00601903
0.00612855
0.00621245
0.00592715
0.00613098
0.00627382
0.0063744
0.00645054
0.00587205
0.00605791
0.00618855
0.00628084
0.00635028
0.00544147
0.00560909
0.00572839
0.00581317
0.00587663
0.00472157
0.0048651
0.00496932
0.00504435
0.00510061
0.00399964
0.00411289
0.00419703
0.00425885
0.00430551
0.00339425
0.00347783
0.00354101
0.00358846
0.00362473
0.00292645
0.00294888
0.00296779
0.00299053
0.00301014
0.00247666
0.0024861
0.00249596
0.00250926
0.00252123
0.00222226
0.00223459
0.00224572
0.00225675
0.002266
0.00210376
0.00212003
0.00213339
0.00214435
0.00215283
0.00205454
0.00207405
0.00208944
0.00210111
0.00210975
0.00203743
0.00205922
0.00207612
0.00208862
0.00209775
0.00203421
0.00205739
0.0020752
0.00208834
0.00209796
0.00203686
0.00206072
0.00207894
0.00209245
0.00210242
0.00204244
0.00206656
0.00208484
0.00209847
0.00210861
0.00205024
0.00207439
0.00209255
0.00210615
0.0021163
0.00206024
0.00208437
0.00210233
0.00211585
0.00212595
0.00207268
0.00209677
0.00211459
0.00212804
0.00213815
0.00208857
0.00211311
0.00213106
0.00214468
0.00215486
0.00211015
0.00213723
0.00215658
0.00217105
0.00218108
0.00218635
0.00214244
0.00217946
0.00220543
0.00222306
0.00223179
0.00223126
0.00219
0.00224987
0.0022941
0.00232103
0.00232533
0.00231023
0.00226232
0.00237558
0.00246276
0.00251615
0.00250621
0.00245889
0.00234981
0.0025445
0.00270493
0.00280976
0.00277364
0.00267306
0.00241317
0.00266346
0.00290552
0.00314378
0.00299376
0.00284621
0.00242911
0.00270708
0.00310504
0.00339256
0.00317038
0.00293575
0.00242605
0.00271828
0.00315929
0.00322522
0.00303795
0.00292175
0.00243975
0.0026678
0.00312214
0.00306109
0.00265873
0.00261969
0.00252952
0.00263138
0.00316559
0.00295807
0.00234732
0.00224735
0.00269847
0.00268535
0.00313705
0.00284041
0.00221033
0.00203482
0.00259504
0.00248187
0.00272684
0.00256397
0.00213478
0.00197106
0.00202441
0.00193185
0.00215218
0.00217084
0.00192438
0.0018557
0.00162125
0.00158207
0.00145986
0.00133022
0.00151867
0.00186306
0.00186123
0.00174707
0.00164692
0.00156249
0.00149345
0.00143995
0.0015485
0.00158439
0.00161362
0.00163605
0.0016541
0.00166831
0.0016013
0.0016056
0.00161155
0.00161992
0.00162712
0.00163349
0.00124393
0.00127151
0.00129968
0.00132661
0.00134699
0.0013623
0.00205541
0.00225813
0.00240469
0.00252301
0.00261637
0.00432295
0.00461056
0.00480323
0.0049401
0.00504479
0.00652594
0.00680709
0.00697879
0.00708835
0.00716956
0.00793419
0.00820764
0.00836484
0.00845792
0.00852447
0.00864458
0.00892015
0.00907684
0.0091672
0.00922954
0.00857553
0.00885537
0.00902005
0.00911752
0.00918406
0.00740265
0.00769222
0.00787483
0.00798801
0.00806632
0.00603209
0.00628847
0.00645906
0.00657028
0.00665037
0.00512119
0.00534655
0.00550074
0.0056075
0.00568634
0.00458213
0.00478594
0.00492424
0.00502174
0.00509503
0.00425658
0.00443309
0.00455058
0.00463479
0.00469873
0.00400807
0.00415284
0.00424696
0.00431597
0.00436827
0.00378351
0.0038426
0.00387014
0.00389846
0.00392158
0.00350166
0.00349962
0.0034873
0.00349054
0.00349316
0.00324754
0.00321773
0.00318969
0.00318157
0.00317144
0.00305137
0.00301485
0.00298401
0.00297223
0.00295361
0.00290834
0.00287571
0.00284861
0.00283703
0.00281182
0.00280335
0.00278087
0.00275969
0.00275003
0.00271895
0.00272053
0.00271167
0.00269789
0.00268999
0.00265345
0.00264549
0.00265046
0.00264538
0.00263953
0.00259821
0.0025674
0.00258449
0.00258812
0.00258397
0.00253935
0.00248162
0.00250605
0.00251532
0.00251167
0.00246637
0.00238537
0.00241042
0.00242074
0.00241662
0.00237459
0.00228258
0.00230235
0.00230895
0.00230402
0.00226999
0.00218962
0.00220701
0.00221018
0.00220646
0.00218339
0.00216389
0.00213051
0.00216208
0.00217181
0.00217569
0.00216073
0.00214826
0.00214615
0.00225773
0.00232023
0.00235798
0.00233119
0.00228852
0.00226583
0.00256231
0.00276285
0.00288891
0.00280286
0.00266486
0.00242427
0.00292094
0.00334392
0.00369026
0.00340906
0.00310755
0.00256426
0.00321152
0.00394307
0.0045276
0.00396803
0.00345447
0.00265796
0.00337805
0.00437998
0.00464273
0.00404471
0.00354829
0.00272857
0.00348395
0.00457741
0.00447293
0.00359275
0.00329539
0.00284212
0.00357914
0.00463954
0.0042186
0.00315711
0.00285325
0.00292729
0.00345741
0.00436102
0.00373757
0.0027563
0.00248502
0.00300975
0.00324992
0.00385159
0.00320276
0.00235149
0.00219573
0.00265663
0.00249881
0.00286445
0.00256976
0.00196521
0.00178853
0.00169532
0.00170122
0.00159548
0.00144073
0.00183776
0.00216713
0.00196447
0.0018638
0.00176718
0.00167657
0.00160021
0.00154106
0.00142865
0.00150848
0.00158212
0.00161193
0.00162653
0.00163738
0.00166698
0.00163288
0.0016035
0.00158612
0.00157382
0.0015661
0.00107594
0.0010654
0.00106191
0.00106702
0.0010699
0.00107196
0.0012526
0.00148793
0.0016785
0.00180716
0.00191846
0.00200355
0.00421008
0.00458177
0.00480078
0.00495312
0.00506267
0.00730172
0.00763413
0.00779531
0.00788188
0.00793864
0.00893676
0.00924865
0.00938295
0.00944003
0.00947249
0.00936919
0.0096825
0.0098222
0.00988182
0.00991467
0.00840081
0.00870881
0.00886788
0.00894862
0.00899772
0.00540564
0.00569482
0.00587679
0.00598543
0.00605874
0.00342101
0.00359496
0.0037156
0.00379573
0.0038538
0.00280957
0.002956
0.00306158
0.00314531
0.00320784
0.00265331
0.00281973
0.00292892
0.0030143
0.00307825
0.0027184
0.0029174
0.00304039
0.00312962
0.00319382
0.00288466
0.00313135
0.00328041
0.00338118
0.00344655
0.00308194
0.00338203
0.00356397
0.00368185
0.00375077
0.00326412
0.00361352
0.00382355
0.00395824
0.00403049
0.00340613
0.00379352
0.00402416
0.00417282
0.00424419
0.00349908
0.00391327
0.00416427
0.00432431
0.00439062
0.00354112
0.00397873
0.00424844
0.00441791
0.00447763
0.00353774
0.00399681
0.00428535
0.00446203
0.00451465
0.00350095
0.00397432
0.00427967
0.00446116
0.00450647
0.00344406
0.00391993
0.00423743
0.00441723
0.00445484
0.00337662
0.00384126
0.00416254
0.00433259
0.00436156
0.00329709
0.00374078
0.00405653
0.00421379
0.0042285
0.00318989
0.00360059
0.00389662
0.00404154
0.0040376
0.00305835
0.00342487
0.00368634
0.00381282
0.00379326
0.00291299
0.0032311
0.00344513
0.00354735
0.00351928
0.0027787
0.003058
0.00321107
0.00328259
0.00325831
0.00325261
0.00273437
0.0031537
0.00333613
0.00340329
0.003386
0.00339249
0.00292338
0.00340843
0.00360452
0.00373154
0.00366714
0.00361708
0.00311692
0.00368817
0.00395444
0.00427817
0.0040177
0.00382724
0.00323815
0.00396049
0.00452496
0.00523081
0.00455396
0.00409446
0.00328415
0.0041333
0.00512649
0.00562363
0.00481056
0.00421069
0.0032895
0.00422372
0.00540972
0.00547643
0.00443278
0.00402514
0.00329904
0.00429793
0.00558085
0.00544571
0.00423382
0.00379865
0.00303499
0.00402654
0.00527226
0.00495922
0.00384765
0.00346219
0.00291778
0.00347785
0.00432962
0.00391454
0.00281749
0.00257075
0.00275529
0.00291669
0.0033182
0.00304888
0.00217456
0.00190124
0.00170028
0.00176797
0.00172696
0.00159351
0.00194051
0.00225558
0.00195201
0.00186416
0.0017748
0.00168934
0.00161489
0.00155528
0.00143213
0.00141302
0.00140119
0.00139433
0.00139105
0.00138983
0.00169799
0.00167988
0.00165299
0.00162089
0.00159523
0.0015764
0.00101914
0.0010005
0.000988399
0.000987901
0.000985885
0.000984143
0.00105527
0.00119907
0.00135806
0.00145774
0.0015525
0.00162297
0.00356087
0.00432182
0.00478313
0.00502666
0.00520056
0.00531893
0.00835121
0.00874258
0.00887602
0.0089295
0.00895326
0.00979404
0.0101299
0.0102147
0.0102218
0.0102104
0.00939279
0.00969076
0.00977911
0.00979426
0.00979065
0.00698768
0.00724169
0.00736048
0.00741391
0.00744261
0.00265991
0.00281397
0.00291532
0.00297762
0.00302021
0.00160741
0.00165222
0.0016844
0.00170639
0.00172274
0.00164561
0.00172542
0.00176933
0.00180036
0.00184235
0.00175479
0.00190163
0.00196864
0.00200834
0.00204414
0.00193203
0.0021709
0.00231554
0.00238706
0.0024228
0.00206146
0.00238347
0.00262392
0.00277276
0.00285257
0.00214706
0.0025469
0.00289617
0.00313385
0.0032593
0.00219354
0.00265216
0.00310236
0.00343165
0.00359728
0.00221292
0.00271267
0.00324203
0.00364905
0.00383937
0.00221256
0.00273829
0.00332058
0.00378234
0.00397832
0.00219682
0.00273559
0.00334938
0.00382557
0.00402514
0.00216857
0.00270838
0.00333468
0.00379617
0.00399286
0.00212885
0.00265817
0.00327132
0.00371001
0.00389865
0.0020826
0.00258726
0.00317523
0.00358604
0.00376512
0.00203049
0.00249795
0.00306618
0.00344891
0.00362151
0.00197702
0.00239796
0.00293191
0.00333623
0.00350732
0.00193055
0.00230282
0.00279228
0.0032095
0.00336884
0.00189497
0.00222845
0.00267267
0.00308246
0.0032242
0.00187564
0.0021825
0.00257423
0.00295396
0.00307592
0.00190668
0.00228002
0.00266337
0.00300852
0.00312121
0.0021046
0.00265104
0.00301817
0.00334191
0.00344008
0.00341424
0.0025228
0.00345213
0.00395804
0.0043348
0.00437545
0.00429793
0.00281614
0.00403172
0.00480541
0.005359
0.00518654
0.00496234
0.00304795
0.00442644
0.00555177
0.00655977
0.00587764
0.00531512
0.00320363
0.00468755
0.0062835
0.00721714
0.00627798
0.00544238
0.00328457
0.00480653
0.00662964
0.00712713
0.00588261
0.00522147
0.00345945
0.0048808
0.00643668
0.00664864
0.0052589
0.00467959
0.00336097
0.00432031
0.00530426
0.00536574
0.00417435
0.0036787
0.00290769
0.00340682
0.00419085
0.00422318
0.00312638
0.00263195
0.00269433
0.00267724
0.00295448
0.00303541
0.00238303
0.0020992
0.0017492
0.00180871
0.00176584
0.00166683
0.00188789
0.00221343
0.00396665
0.00379541
0.00360906
0.00342306
0.00325329
0.00311126
0.00176502
0.00168273
0.00159819
0.00151595
0.0014416
0.00137967
0.00167644
0.0015848
0.0014943
0.00140785
0.00132916
0.00126199
0.000916113
0.000916383
0.000917445
0.000919842
0.000920419
0.00092043
0.00118407
0.00129706
0.00142624
0.00149409
0.00155881
0.001604
0.00450963
0.00534273
0.00580499
0.00601218
0.00616179
0.00625898
0.0084589
0.0100719
0.0105063
0.0105895
0.0105995
0.0105861
0.0109336
0.0112747
0.0112904
0.0112445
0.0111906
0.00937296
0.00959732
0.00960708
0.00957253
0.0095326
0.00538023
0.00553896
0.00560293
0.0056291
0.00564061
0.0012322
0.00126922
0.00129283
0.0013083
0.00131839
0.00141443
0.00143163
0.00143879
0.00144093
0.00144254
0.00159175
0.00156817
0.00150649
0.0014144
0.00136024
0.00203482
0.0017785
0.00154731
0.00134112
0.00118276
0.00218128
0.00190109
0.00164839
0.00141155
0.00121618
0.00218101
0.00188139
0.00161123
0.00136364
0.00115557
0.00216404
0.00186755
0.00160275
0.00135776
0.00112592
0.00216019
0.00187846
0.00162539
0.00139075
0.0011766
0.00216975
0.00190753
0.00167093
0.00145216
0.00127201
0.00219297
0.0019528
0.00173475
0.00153412
0.00139062
0.00223016
0.00201336
0.00181484
0.00163474
0.00152474
0.00228176
0.00208938
0.00191111
0.0017505
0.00167404
0.00234832
0.00218199
0.00202488
0.00188401
0.00183819
0.00243171
0.0022934
0.00215976
0.00204003
0.00201927
0.00253311
0.0024269
0.00232181
0.00222571
0.00222373
0.00265309
0.00258554
0.00251413
0.00244941
0.00245974
0.00279384
0.00277619
0.00274703
0.00271868
0.00273509
0.00295205
0.00299465
0.0030161
0.00302956
0.00304692
0.00313831
0.0032759
0.00337081
0.00343795
0.0034538
0.00332442
0.00353027
0.00368641
0.00381629
0.00383126
0.00357345
0.00408047
0.00439818
0.00462604
0.00464039
0.00392148
0.00437384
0.00443858
0.00458617
0.00459751
0.00462441
0.00400384
0.00455789
0.00509842
0.00554397
0.00540453
0.00526021
0.00395104
0.00474238
0.00579413
0.00678273
0.00616641
0.00564173
0.00382629
0.00488835
0.00656396
0.00765576
0.00668798
0.00579096
0.00363995
0.00502516
0.00695031
0.00749815
0.00640795
0.0056729
0.00319216
0.00493457
0.00611316
0.00619571
0.00537954
0.00507007
0.00233879
0.00295978
0.00344527
0.00371554
0.00355718
0.00344516
0.0019208
0.00211178
0.00230164
0.00248187
0.0024595
0.00252918
0.00173343
0.00185942
0.00192658
0.00201048
0.00209913
0.00226594
0.00363104
0.00372462
0.00361621
0.00351862
0.00376456
0.004328
0.000844682
0.000841532
0.000840486
0.000839688
0.000839108
0.00083878
0.00207338
0.00217104
0.00226661
0.00230701
0.00234634
0.00237303
0.00725752
0.00825169
0.00860045
0.00870782
0.0087797
0.00882177
0.0106037
0.0125664
0.012975
0.0130049
0.0129835
0.0129512
0.0108827
0.0127042
0.0130153
0.0129806
0.0129128
0.0128474
0.0103081
0.0104429
0.0103883
0.0103252
0.0102677
0.00422462
0.00428686
0.00429966
0.00430254
0.0043006
0.000858926
0.000860603
0.000861589
0.000862244
0.000862833
0.00963383
0.0047185
0.00482991
0.00483362
0.00471594
0.0051701
0.00561369
0.00548634
0.00533248
0.00472085
0.00586395
0.00684097
0.00626278
0.00571573
0.00472813
0.00659731
0.00767818
0.00675576
0.00584802
0.00481316
0.00692497
0.00746907
0.00644857
0.00571747
0.0100089
0.00543839
0.00540093
0.00504956
0.0049554
0.000601211
0.000601011
0.000600839
0.000600727
0.000600612
0.000600538
0.00588667
0.00597898
0.00600838
0.006012
0.00601607
0.00601729
0.012015
0.012947
0.0131274
0.0131606
0.0131779
0.0131854
0.0136116
0.0150335
0.0152691
0.0152808
0.0152718
0.0152595
0.0135017
0.0148108
0.0149855
0.0149617
0.0149307
0.0149043
0.0122039
0.0130562
0.013115
0.0130697
0.0130327
0.0130038
0.00618778
0.00619372
0.00618112
0.00617273
0.0061647
0.000598934
0.000599009
0.000599045
0.00059902
0.000599017
0.0131512
0.00612549
0.00621153
0.00621802
0.00611873
0.00522495
0.00565188
0.0055262
0.00609353
0.00591365
0.00688221
0.00634565
0.00574433
0.00610933
0.00662859
0.00768318
0.0068373
0.00588807
0.00624826
0.00685091
0.00737802
0.00646623
0.00574393
0.0136169
0.00691687
0.0068721
0.00648626
0.00638145
0.00179524
0.00185659
0.00188044
0.00187145
0.00183516
0.00177678
0.000844891
0.000878801
0.000896983
0.000899771
0.000888635
0.000865626
0.00176966
0.00181762
0.00183606
0.00182816
0.0017968
0.00174495
0.00132386
0.0012282
0.0011441
0.00104742
0.000924838
0.000769099
0.0007309
0.000697038
0.00065968
0.000612445
0.000857409
0.000830133
0.000803856
0.000772696
0.000731585
0.000919219
0.000897756
0.000875166
0.00084661
0.00080771
0.000969123
0.000952129
0.000932565
0.000905786
0.000867759
0.00100799
0.000994414
0.000977738
0.00095197
0.000914331
0.00103345
0.00102067
0.00100463
0.000980669
0.000946377
0.00104086
0.0010218
0.00100766
0.00098813
0.000960881
0.00102359
0.0009889
0.000979816
0.000969204
0.000955607
0.000983032
0.000875196
0.000854299
0.000826282
0.000816038
0.00094029
0.000665194
0.00062185
0.00060696
0.000602049
0.000879447
0.000524858
0.000514691
0.000514223
0.000514241
0.00194833
0.00202771
0.00209879
0.00220268
0.00237244
0.00266518
0.00329213
0.00499292
0.00487268
0.0183272
0.00983056
0.00915258
0.00916942
0.00470916
0.00768348
0.00525101
0.00553275
0.00541386
0.0044002
0.00685262
0.00581604
0.006755
0.0062834
0.0042418
0.00684588
0.00648392
0.00749607
0.00676215
0.00392758
0.00729851
0.00664932
0.00708798
0.00631895
0.00567773
0.00415767
0.0156461
0.007837
0.00752877
0.00719167
0.00735312
0.00245203
0.00433794
0.00438653
0.00444568
0.00436385
0.00435374
0.00162051
0.0020219
0.00223503
0.00236011
0.00236065
0.00230022
0.00124962
0.00128481
0.00130425
0.00135411
0.00139087
0.00145592
0.00239377
0.00239645
0.00231948
0.00231722
0.00253386
0.00276621
0.00085979
0.00090108
0.000926745
0.000936792
0.000932408
0.000915401
0.00101726
0.00095478
0.000903554
0.000867315
0.000843056
0.000826453
0.000841058
0.000869534
0.000888361
0.000897069
0.000895513
0.00088391
0.000667841
0.000624628
0.000579286
0.000533373
0.000478713
0.00116559
0.00118935
0.00119524
0.00118278
0.00115398
0.00154446
0.00156027
0.00155496
0.00152804
0.00148311
0.00183032
0.00181601
0.00178287
0.001732
0.0016682
0.00200288
0.00195039
0.00188282
0.00180449
0.00172248
0.00208345
0.00199188
0.00188646
0.00175969
0.00164525
0.00210404
0.00197017
0.00180079
0.00164573
0.00152148
0.00209611
0.00192119
0.00173107
0.00157242
0.00144671
0.00208589
0.00193321
0.00172282
0.00155208
0.00141445
0.00211192
0.00184222
0.00147488
0.0012529
0.00113974
0.00206767
0.00155526
0.00129713
0.0012635
0.00125716
0.00175632
0.00213994
0.00297276
0.00318238
0.00320798
0.000955696
0.000952997
0.000964338
0.00099205
0.00104026
0.00112541
0.00136848
0.00252692
0.00823169
0.021517
0.0134787
0.0120032
0.0120345
0.00759308
0.00894077
0.00553575
0.00551434
0.00540898
0.00676453
0.00706622
0.00581034
0.00665555
0.00622158
0.00634897
0.00698296
0.00644142
0.00736547
0.00669614
0.00638736
0.00777763
0.00665519
0.00698323
0.00627889
0.00746654
0.0157868
0.00816986
0.00757733
0.00727455
0.00772649
0.00358978
0.00773916
0.00700688
0.00661357
0.00653045
0.00691428
0.00152239
0.00224184
0.00258915
0.00277139
0.00263106
0.00242198
0.00137651
0.00132927
0.0014943
0.00171149
0.00147485
0.00125293
0.00112029
0.00112095
0.00106516
0.00106286
0.00121716
0.00133586
0.000913352
0.000952933
0.000981449
0.000997459
0.00100065
0.00099158
0.00111621
0.00102254
0.000949884
0.000894534
0.0008533
0.000822807
0.000866689
0.000894111
0.00091734
0.000934143
0.000942718
0.000941903
0.000882152
0.000839674
0.000791765
0.000736732
0.000667317
0.000591038
0.00137861
0.0013925
0.00138556
0.00136033
0.00132028
0.00200143
0.00200747
0.00198572
0.00193748
0.00186878
0.00255681
0.00253531
0.00248417
0.00240429
0.00230249
0.00296645
0.00291239
0.0028285
0.00271847
0.00258989
0.00324945
0.00316263
0.00304181
0.00289943
0.00273604
0.00345212
0.0033356
0.00315462
0.00294085
0.00272575
0.00361886
0.0034345
0.0031511
0.00286296
0.00260216
0.00370995
0.00336999
0.00289669
0.00249043
0.00220892
0.00361963
0.00273421
0.00205183
0.00169194
0.00151517
0.00327818
0.00214515
0.00191515
0.00197657
0.00200887
0.00250182
0.00254339
0.00400756
0.00443875
0.00448185
0.00100188
0.00097947
0.000980839
0.00100149
0.00104251
0.0011185
0.00142345
0.00296927
0.0107307
0.023764
0.0175951
0.0155029
0.0155478
0.00985232
0.0103409
0.00621346
0.00573913
0.00565871
0.00863439
0.00736968
0.00583738
0.00654454
0.00614376
0.00805387
0.0071496
0.00641917
0.00724516
0.00663318
0.00825787
0.00828636
0.00670898
0.00690716
0.00625854
0.00940037
0.0156533
0.0085351
0.00765635
0.00737391
0.00529347
0.00982474
0.00886191
0.00820647
0.00812542
0.00872065
0.0022821
0.00368342
0.00403375
0.00413223
0.00402848
0.00394443
0.00138119
0.00153408
0.00194393
0.00226121
0.00188421
0.00153059
0.00113067
0.00111949
0.00105421
0.00109852
0.00129143
0.00139514
0.000967625
0.000997448
0.00101876
0.00103064
0.00103256
0.00102448
0.00114293
0.00104409
0.000968361
0.000910251
0.000865467
0.000830722
0.000883769
0.000904505
0.000924904
0.000942452
0.000954518
0.000958975
0.00103877
0.00099567
0.00094059
0.000875254
0.000798313
0.000705426
0.00158071
0.00160204
0.00160429
0.0015827
0.0015401
0.00148214
0.00244147
0.00242729
0.00237557
0.00229075
0.00218346
0.00313566
0.00310825
0.00303725
0.0029241
0.00277937
0.00359086
0.00356094
0.00348657
0.00336891
0.00321724
0.00390234
0.00387538
0.00380145
0.00369109
0.0035365
0.00417073
0.00415482
0.00405024
0.00388746
0.00368557
0.00444259
0.00434586
0.00410658
0.00382762
0.00354855
0.00460495
0.00412351
0.00352137
0.00302184
0.00270914
0.00448464
0.0033298
0.0025108
0.00211974
0.00193362
0.0039694
0.00260774
0.00248858
0.00265997
0.0027246
0.00290233
0.00268719
0.00411947
0.00448784
0.00450169
0.00103047
0.000994913
0.000987217
0.000999267
0.00103104
0.00110362
0.00149827
0.0033503
0.012733
0.0253835
0.0217785
0.0195866
0.019636
0.0116027
0.011791
0.00741142
0.00647581
0.00642422
0.010123
0.00778387
0.00591886
0.0064221
0.00605149
0.00943067
0.00736357
0.00641971
0.00713593
0.00657446
0.00971283
0.00879722
0.00680522
0.00685671
0.00625669
0.0106591
0.0153777
0.00891761
0.0077698
0.00749605
0.0067457
0.0110693
0.0101811
0.00939383
0.00929071
0.00327231
0.00514152
0.00541438
0.00542932
0.00543052
0.00543234
0.00160908
0.00205186
0.0026717
0.00301731
0.00263371
0.00223612
0.00113988
0.00112563
0.0010823
0.00122979
0.00138799
0.00146445
0.0010198
0.00103902
0.00104951
0.00105269
0.00104864
0.0010373
0.00116893
0.00106903
0.000992683
0.000933622
0.000887077
0.000849856
0.000898924
0.000911015
0.000925531
0.000940128
0.000951841
0.000957994
0.00117311
0.00112981
0.00107086
0.000999138
0.000913727
0.000812484
0.00185488
0.00186437
0.00184909
0.00180708
0.00174414
0.00166692
0.00294067
0.00294911
0.00291436
0.00282934
0.00270236
0.00254958
0.00368674
0.00367676
0.00360864
0.00348024
0.00330366
0.00407446
0.00410593
0.00408243
0.00399761
0.00386571
0.00434388
0.00441302
0.00443155
0.00437606
0.00425251
0.00463484
0.00471327
0.00468119
0.00457603
0.00441322
0.00492863
0.00484283
0.00458394
0.00430637
0.00408922
0.00509179
0.00455655
0.00386885
0.003332
0.00301526
0.00497
0.00373977
0.00290539
0.00254983
0.00238499
0.00437745
0.00297002
0.00297216
0.00321397
0.00328656
0.00311969
0.00275381
0.00404234
0.00429855
0.00427983
0.00104201
0.000992976
0.000976702
0.00098173
0.00100698
0.00108185
0.00156606
0.00366458
0.0143371
0.0267459
0.0257032
0.0239947
0.0240388
0.0130015
0.0132933
0.00911939
0.00784689
0.00782146
0.0112875
0.00832333
0.00609747
0.00632791
0.00598897
0.0105523
0.00763868
0.00644783
0.00703869
0.00652118
0.0108726
0.00929376
0.00694086
0.00683037
0.00627294
0.0115459
0.0150527
0.00930578
0.00792079
0.00764651
0.00795313
0.0118635
0.0111472
0.0103022
0.0100978
0.00427085
0.00641541
0.00669561
0.00668004
0.0067195
0.00201029
0.00274105
0.00348393
0.00383142
0.00351237
0.00310756
0.00117191
0.00118633
0.0012276
0.00140519
0.00153028
0.00158367
0.00107203
0.0010811
0.00108072
0.00107398
0.00106194
0.00104498
0.00119842
0.00109708
0.00101943
0.000958901
0.000910568
0.000871128
0.000914448
0.000917737
0.000925797
0.000936314
0.000946092
0.000952118
0.00128163
0.00124015
0.00118101
0.0011071
0.00101731
0.000910243
0.00219635
0.00218285
0.00213845
0.00206596
0.00197472
0.00187364
0.00348319
0.00349161
0.00344907
0.00334077
0.00317678
0.00297913
0.00408279
0.00416931
0.00420647
0.0041797
0.00407437
0.00389592
0.00446084
0.00458199
0.00464002
0.00463772
0.00453481
0.00470725
0.00487653
0.00496843
0.00497741
0.00490081
0.00499724
0.00512697
0.00511511
0.00504092
0.00494973
0.00527504
0.00519185
0.00488731
0.00457638
0.00437754
0.00541916
0.00485624
0.00411578
0.00356558
0.00325786
0.00525849
0.00404234
0.0032678
0.0029798
0.00284552
0.00460607
0.00323974
0.00334782
0.00362028
0.00368157
0.00331383
0.00277019
0.00393545
0.00409937
0.00405129
0.00104503
0.000982928
0.000962637
0.00096661
0.000991193
0.00107138
0.00163318
0.00392615
0.0156475
0.0280068
0.0291363
0.0282926
0.0283219
0.0142154
0.0148742
0.0112492
0.00982747
0.00982301
0.0122557
0.00899431
0.00642747
0.00634991
0.00604764
0.01144
0.00798102
0.00651039
0.00695659
0.00647703
0.0117988
0.00976552
0.0071125
0.00682752
0.00630722
0.0122143
0.0147395
0.00968574
0.00810562
0.0078239
0.00896272
0.0123953
0.0118318
0.0109627
0.0106887
0.00522602
0.00745783
0.00784413
0.0078202
0.0078607
0.00253443
0.00354006
0.00436008
0.00470419
0.00447053
0.00123763
0.00131341
0.00143796
0.0016099
0.00171164
0.0017475
0.00112428
0.00112468
0.00111451
0.00109811
0.00107757
0.00105394
0.00123159
0.00112785
0.00104806
0.000985455
0.000934999
0.000893212
0.000930958
0.000925783
0.000927687
0.000934117
0.00094157
0.000946747
0.0013682
0.00133011
0.00127351
0.00120061
0.00110997
0.00100116
0.00260174
0.00255041
0.00246609
0.00235737
0.00223274
0.00210399
0.00395285
0.00398
0.0039716
0.00387118
0.0036967
0.00347303
0.00439732
0.00454449
0.00466262
0.00472394
0.00468385
0.00455073
0.00456912
0.00480147
0.005007
0.00516404
0.005228
0.00517604
0.00505379
0.00529091
0.00542109
0.00547337
0.00545617
0.00534278
0.005495
0.00546891
0.00538196
0.00531896
0.00558956
0.00549063
0.0051293
0.00477126
0.00456939
0.00567681
0.0050904
0.00433192
0.00378692
0.00349115
0.00543349
0.00427022
0.00359765
0.00338659
0.00327935
0.00468577
0.00340891
0.00361235
0.00389772
0.00394017
0.00326221
0.00269921
0.00382051
0.00392614
0.00385156
0.00105742
0.000984641
0.000967129
0.0009758
0.00100291
0.00108603
0.00170215
0.00412767
0.016675
0.0291087
0.0319388
0.0320449
0.0320549
0.0153175
0.0165635
0.0136836
0.0122948
0.0123057
0.013123
0.00980097
0.00695353
0.00657831
0.0063163
0.0121899
0.00839361
0.00661652
0.00689671
0.0064502
0.0125455
0.0102092
0.00731672
0.00684807
0.00636003
0.0127462
0.014472
0.0100486
0.00831851
0.0080256
0.00981505
0.0127706
0.0123247
0.0114606
0.0111411
0.00612556
0.00834452
0.00886016
0.00884
0.00880004
0.00315185
0.00440239
0.00527465
0.00561574
0.00544059
0.00134403
0.00149362
0.0016786
0.00183899
0.00193552
0.00117645
0.00116999
0.0011514
0.00112609
0.00109725
0.00106664
0.00126784
0.00116086
0.00107821
0.00101303
0.000960176
0.000915928
0.000948827
0.000935728
0.000932048
0.000934767
0.000939988
0.000944134
0.00143697
0.00140291
0.00135096
0.00128139
0.00119263
0.00108568
0.00295822
0.00287139
0.0027923
0.00266512
0.00251278
0.00236046
0.00430341
0.00435479
0.00438366
0.00436447
0.00423248
0.00402874
0.00469928
0.00490011
0.0050814
0.0052201
0.00528133
0.00518575
0.00486704
0.00516352
0.00543598
0.00563778
0.00575123
0.0057567
0.0050619
0.00542442
0.00569659
0.00583748
0.00589675
0.0059143
0.0056919
0.00584545
0.00578732
0.0056651
0.00560393
0.00588637
0.00575671
0.00534505
0.00494262
0.00472854
0.00588747
0.00527976
0.00453682
0.00401577
0.00373358
0.00553728
0.00442669
0.00387716
0.0037441
0.0036572
0.00467776
0.00346778
0.00377152
0.0040733
0.00409785
0.00315022
0.00253736
0.003689
0.00376727
0.00366983
0.00109116
0.00101632
0.00100581
0.00101945
0.001047
0.00113091
0.00177825
0.0042662
0.017445
0.0300429
0.0340248
0.0349852
0.0349768
0.016337
0.0183139
0.0163415
0.0150966
0.0151172
0.0139415
0.0107412
0.00770182
0.0070646
0.00684302
0.0128577
0.00887828
0.00677751
0.0068703
0.00645355
0.0131585
0.0106272
0.00755038
0.00689235
0.00643244
0.0131894
0.0142662
0.0103905
0.00855387
0.00824866
0.0105447
0.0130553
0.0126963
0.0118502
0.0115031
0.00696626
0.00911844
0.00975083
0.00972833
0.00959489
0.00383579
0.00528031
0.00619819
0.00652563
0.00634356
0.00149044
0.00171791
0.00192631
0.00208261
0.00218945
0.00122838
0.00121686
0.00119132
0.0011581
0.00112144
0.00108393
0.00130671
0.00119583
0.00110981
0.0010417
0.000986243
0.000939445
0.000968239
0.000947857
0.000939279
0.000938824
0.000942121
0.000945318
0.00149613
0.00146525
0.00141693
0.00135227
0.00126969
0.00116519
0.00322973
0.00312194
0.00303731
0.00295569
0.00280718
0.0026549
0.00463447
0.00470951
0.00477163
0.00480614
0.00478188
0.00459805
0.00503478
0.00527991
0.00551332
0.00570443
0.00580332
0.00577064
0.00521639
0.00556098
0.00587557
0.00609619
0.00622674
0.00626847
0.00542091
0.00582117
0.00610164
0.00623284
0.00627781
0.00630513
0.00566236
0.00604865
0.00618122
0.00608195
0.00591609
0.00584443
0.00617263
0.00599744