/*--------------------------------*- C++ -*----------------------------------*\
| =========                 |                                                 |
| \\      /  F ield         | OpenFOAM: The Open Source CFD Toolbox           |
|  \\    /   O peration     | Version:  2.3.1                                 |
|   \\  /    A nd           | Web:      www.OpenFOAM.org                      |
|    \\/     M anipulation  |                                                 |
\*---------------------------------------------------------------------------*/
FoamFile
{
    version     2.0;
    format      ascii;
    class       volScalarField;
    location    "600";
    object      p;
}
// * * * * * * * * * * * * * * * * * * * * * * * * * * * * * * * * * * * * * //

dimensions      [0 2 -2 0 0 0 0];

internalField   nonuniform List<scalar> 
6852
(
77.9099
77.929
77.9461
77.9601
77.9712
77.9792
77.8971
77.9159
77.9328
77.9466
77.9577
77.9657
77.9261
77.9449
77.9595
77.9712
77.9795
77.9742
77.9924
78.0053
78.0155
78.0226
77.979
77.9964
78.0093
78.0195
78.0268
77.9894
78.0069
78.0197
78.0296
78.0364
77.9811
77.9991
78.0121
78.0222
78.0293
77.9578
77.9754
77.9878
77.9976
78.0043
77.9206
77.9369
77.9483
77.9574
77.9636
77.8695
77.8838
77.8936
77.9017
77.9072
77.8094
77.8209
77.8286
77.8353
77.8399
77.7355
77.7444
77.7503
77.7557
77.7595
77.6705
77.6762
77.68
77.6838
77.6866
77.6197
77.6227
77.6247
77.6271
77.629
77.5821
77.5833
77.584
77.5852
77.5864
77.5548
77.5548
77.5547
77.5553
77.5561
77.5347
77.5341
77.5336
77.5338
77.5345
77.519
77.518
77.5173
77.5174
77.5181
77.5057
77.5044
77.5037
77.5037
77.5045
77.4938
77.4923
77.4914
77.4914
77.4923
77.4827
77.4808
77.4797
77.4796
77.4806
77.4718
77.4694
77.4681
77.4679
77.469
77.4611
77.4581
77.4563
77.4559
77.4571
77.4504
77.4465
77.4441
77.4434
77.4446
77.4399
77.4348
77.4315
77.4304
77.4314
77.4294
77.4229
77.4186
77.4168
77.4177
77.4194
77.4112
77.4057
77.4032
77.4037
77.4079
77.4102
77.4
77.3934
77.3902
77.3898
77.394
77.4029
77.3908
77.3834
77.3799
77.3782
77.3818
77.398
77.3838
77.3763
77.3735
77.3693
77.3712
77.3982
77.3837
77.3782
77.378
77.3704
77.369
77.4022
77.3871
77.3867
77.3946
77.378
77.3702
77.4149
77.4046
77.4111
77.4174
77.4041
77.3892
77.429
77.419
77.4276
77.429
77.4214
77.4051
77.4384
77.4268
77.432
77.4317
77.4254
77.4127
77.4469
77.4365
77.4416
77.4413
77.4332
77.4212
77.464
77.456
77.4626
77.4625
77.4515
77.4407
77.489
77.4878
77.4982
77.4987
77.4867
77.477
77.5114
77.513
77.524
77.5249
77.5131
77.5035
77.5296
77.5314
77.5399
77.5413
77.5313
77.5217
77.5375
77.5371
77.5411
77.5426
77.5348
77.5257
76.8777
76.8964
76.9134
76.9274
76.9386
76.9465
76.8585
76.877
76.8939
76.9078
76.919
76.927
76.8558
76.8781
76.8976
76.9128
76.9248
76.9334
76.9186
76.9383
76.9524
76.9635
76.9711
76.9259
76.9444
76.9582
76.9691
76.9769
76.935
76.9537
76.9672
76.9778
76.9852
76.9243
76.9431
76.9566
76.9672
76.9746
76.9015
76.9198
76.9326
76.9427
76.9497
76.865
76.8819
76.8936
76.9029
76.9093
76.8147
76.8295
76.8396
76.8479
76.8536
76.7569
76.7687
76.7766
76.7834
76.7881
76.6818
76.6908
76.6969
76.7023
76.7061
76.6222
76.6275
76.6311
76.6348
76.6374
76.5777
76.5805
76.5822
76.5844
76.5862
76.5478
76.5487
76.5492
76.5503
76.5514
76.5273
76.5272
76.527
76.5275
76.5282
76.5122
76.5115
76.511
76.5112
76.5118
76.4999
76.4988
76.4981
76.4982
76.4989
76.4887
76.4874
76.4867
76.4867
76.4875
76.4781
76.4766
76.4758
76.4759
76.4767
76.4677
76.4659
76.4649
76.465
76.4659
76.4573
76.455
76.4538
76.4537
76.4548
76.4467
76.4438
76.4421
76.4418
76.443
76.436
76.4321
76.4297
76.4291
76.4303
76.425
76.4199
76.4166
76.4155
76.4166
76.414
76.4072
76.4028
76.401
76.4019
76.4032
76.3944
76.3886
76.3861
76.3865
76.3929
76.3815
76.3743
76.3708
76.3704
76.3748
76.3843
76.3704
76.3621
76.3582
76.3563
76.3602
76.3772
76.3595
76.3508
76.3471
76.3423
76.3446
76.3767
76.3576
76.3522
76.3518
76.3427
76.3411
76.3773
76.3518
76.3516
76.3584
76.3401
76.3315
76.3918
76.3722
76.3853
76.401
76.3752
76.3572
76.4065
76.3884
76.4093
76.4143
76.4003
76.3769
76.4149
76.3958
76.4151
76.4099
76.3995
76.3797
76.4276
76.4092
76.4259
76.4216
76.4057
76.3898
76.4456
76.4309
76.4514
76.4481
76.4242
76.4077
76.4738
76.4733
76.4981
76.4988
76.4739
76.4559
76.4954
76.4994
76.5218
76.5259
76.505
76.4861
76.5147
76.5197
76.5359
76.54
76.5271
76.5113
76.5239
76.5251
76.5325
76.537
76.5289
76.5156
75.8321
75.8482
75.8637
75.8771
75.8879
75.8958
75.8102
75.8266
75.8429
75.8565
75.8675
75.8754
75.8006
75.8224
75.8417
75.8569
75.869
75.8776
75.8372
75.8609
75.8817
75.8962
75.9078
75.9157
75.8712
75.8902
75.904
75.9152
75.923
75.8813
75.9008
75.9144
75.9253
75.9327
75.8676
75.8871
75.9007
75.9116
75.919
75.8446
75.8635
75.8763
75.8867
75.8937
75.8076
75.825
75.8365
75.8462
75.8526
75.7556
75.7707
75.7806
75.7891
75.7949
75.6991
75.7109
75.7183
75.7252
75.7298
75.6138
75.6224
75.6279
75.6332
75.6368
75.5609
75.5645
75.5667
75.5697
75.572
75.5256
75.5263
75.5265
75.5278
75.529
75.5066
75.5057
75.5046
75.5046
75.505
75.4955
75.4939
75.4922
75.4915
75.4915
75.4877
75.486
75.4844
75.4837
75.4836
75.4808
75.4794
75.4783
75.4778
75.478
75.4737
75.4726
75.4718
75.4716
75.472
75.4658
75.4648
75.4641
75.4641
75.4647
75.4569
75.4557
75.455
75.4551
75.4559
75.4467
75.4453
75.4444
75.4445
75.4454
75.4354
75.4333
75.432
75.432
75.433
75.4231
75.4198
75.4178
75.4174
75.4185
75.4098
75.4048
75.4017
75.4007
75.4016
75.3955
75.388
75.3832
75.3812
75.3818
75.3802
75.3693
75.3622
75.3589
75.359
75.3637
75.3475
75.3372
75.3321
75.3311
75.3473
75.3243
75.3108
75.3037
75.3008
75.3069
75.3277
75.2903
75.2721
75.2629
75.2557
75.2613
75.3164
75.2662
75.2491
75.2423
75.2284
75.2308
75.2942
75.1921
75.1716
75.1691
75.14
75.1349
75.3125
75.2153
75.221
75.2404
75.1921
75.1717
75.3353
75.2464
75.2757
75.2858
75.2471
75.2111
75.352
75.2634
75.2976
75.2852
75.2579
75.2238
75.3751
75.2971
75.3255
75.3079
75.2786
75.2502
75.4023
75.3427
75.3694
75.3589
75.3122
75.2874
75.4492
75.4356
75.4751
75.4759
75.4318
75.4023
75.4765
75.4742
75.51
75.5151
75.4786
75.4487
75.5017
75.5053
75.5309
75.5361
75.516
75.492
75.5133
75.5124
75.5231
75.5293
75.5197
75.4996
74.7989
74.8115
74.8242
74.8356
74.845
74.852
74.7808
74.7928
74.8051
74.816
74.8251
74.8319
74.7592
74.7747
74.7904
74.8038
74.815
74.8232
74.7879
74.8087
74.8287
74.8423
74.8535
74.8611
74.7984
74.8179
74.8369
74.8503
74.8615
74.8692
74.8289
74.8488
74.8622
74.8733
74.8808
74.8117
74.8319
74.8452
74.8564
74.864
74.7885
74.8079
74.8206
74.8313
74.8384
74.7512
74.769
74.7803
74.7902
74.7967
74.6973
74.7128
74.7224
74.7312
74.737
74.6419
74.6538
74.6608
74.6677
74.6723
74.5375
74.5454
74.5501
74.5553
74.5588
74.4921
74.4936
74.4943
74.4967
74.4984
74.4703
74.4697
74.4688
74.4693
74.4702
74.4656
74.4634
74.4616
74.461
74.4611
74.4644
74.4614
74.4593
74.4584
74.4584
74.464
74.4613
74.4595
74.4587
74.4587
74.4623
74.4602
74.4588
74.4584
74.4586
74.4583
74.4569
74.4559
74.4559
74.4564
74.4521
74.4511
74.4505
74.4509
74.4516
74.4439
74.443
74.4426
74.4432
74.4441
74.4337
74.4325
74.432
74.4327
74.4337
74.4218
74.4198
74.4188
74.4192
74.4202
74.408
74.4047
74.4027
74.4026
74.4035
74.3922
74.3868
74.3833
74.3823
74.3831
74.3742
74.3655
74.3599
74.3575
74.3579
74.354
74.3402
74.3315
74.3272
74.3268
74.3298
74.3071
74.2936
74.2862
74.2841
74.3036
74.2678
74.2487
74.2378
74.2332
74.2668
74.1979
74.1677
74.151
74.1407
74.1518
74.2447
74.1471
74.1182
74.1004
74.0831
74.0951
74.1883
73.93
73.883
73.857
73.8195
73.8356
74.2288
73.9977
74.0098
74.0101
73.9548
73.9532
74.2647
74.0464
74.0945
74.1064
74.0449
74.02
74.2914
74.0718
74.1414
74.1171
74.0799
74.0453
74.3307
74.1405
74.2077
74.1709
74.1432
74.1107
74.369
74.2179
74.2561
74.2291
74.1809
74.1605
74.4421
74.4051
74.4577
74.4588
74.4087
74.3689
74.4644
74.4478
74.4903
74.5004
74.4595
74.4171
74.492
74.4908
74.5197
74.5299
74.5098
74.477
74.5054
74.4997
74.5101
74.5202
74.5111
74.485
73.7885
73.7995
73.8103
73.8198
73.8278
73.8337
73.776
73.7855
73.795
73.8034
73.8105
73.8157
73.7555
73.7655
73.7764
73.7857
73.7939
73.8
73.7721
73.7875
73.8037
73.8145
73.8236
73.8297
73.7603
73.7777
73.7959
73.808
73.8185
73.8256
73.7665
73.7856
73.8053
73.818
73.8288
73.836
73.7636
73.7838
73.7965
73.8075
73.8148
73.7388
73.7584
73.7705
73.781
73.788
73.6998
73.7177
73.7283
73.738
73.7444
73.6426
73.6582
73.6671
73.6758
73.6815
73.58
73.5907
73.5964
73.6029
73.6072
73.4632
73.466
73.4688
73.4729
73.4749
73.4215
73.4114
73.4077
73.4086
73.408
73.4158
73.4083
73.4029
73.4018
73.4025
73.4336
73.4277
73.4221
73.419
73.4181
73.4434
73.4389
73.4343
73.431
73.4293
73.4479
73.4447
73.4414
73.4391
73.4379
73.4486
73.4464
73.444
73.4426
73.4422
73.4464
73.445
73.4435
73.4428
73.4428
73.4415
73.4406
73.4398
73.4397
73.44
73.4341
73.4335
73.433
73.4333
73.4337
73.4243
73.4237
73.4233
73.4238
73.4243
73.4123
73.4112
73.4106
73.4111
73.4115
73.3978
73.3956
73.3945
73.3946
73.3948
73.3805
73.3762
73.374
73.3734
73.3731
73.3594
73.3512
73.347
73.3453
73.3442
73.3337
73.3187
73.3109
73.3074
73.3053
73.2999
73.2702
73.2557
73.2488
73.2447
73.2592
73.2042
73.1805
73.1686
73.1615
73.1883
73.044
72.9954
72.9735
72.9575
73.1353
72.8843
72.8319
72.7996
72.7738
72.7952
72.9386
71.6978
71.5691
71.5128
71.4351
71.458
73.0042
71.8312
71.9151
71.9135
71.815
71.7899
73.0559
71.9302
72.1064
72.1712
72.0437
71.9525
73.1045
72.0148
72.2429
72.221
72.1729
72.053
73.18
72.2003
72.3793
72.2899
72.293
72.2145
73.2614
72.4136
72.3989
72.2972
72.272
72.2668
73.422
73.2959
73.3388
73.3285
73.2873
73.2398
73.443
73.3867
73.4168
73.4272
73.3914
73.3384
73.48
73.4683
73.489
73.5013
73.4844
73.4488
73.487
73.4767
73.4842
73.4951
73.4853
73.4588
72.7841
72.7961
72.8078
72.818
72.8264
72.8326
72.7716
72.7825
72.7931
72.8021
72.8096
72.815
72.7519
72.763
72.774
72.7827
72.7902
72.7959
72.7712
72.782
72.7956
72.805
72.8134
72.819
72.7343
72.7494
72.7668
72.7778
72.7876
72.7943
72.7361
72.7528
72.772
72.7836
72.7939
72.8008
72.71
72.7262
72.7458
72.7576
72.7681
72.7751
72.6994
72.7184
72.7295
72.7398
72.7465
72.6584
72.6757
72.6856
72.6951
72.7013
72.5903
72.6059
72.6146
72.6232
72.6289
72.4673
72.479
72.4848
72.491
72.4947
72.2617
72.2728
72.2797
72.2848
72.29
72.37
72.3744
72.3787
72.382
72.3847
72.3791
72.3777
72.3784
72.3802
72.3812
72.4059
72.4017
72.3994
72.3989
72.3997
72.4211
72.4164
72.4129
72.4115
72.412
72.4309
72.428
72.4251
72.4233
72.4234
72.4336
72.4318
72.4302
72.4297
72.4298
72.432
72.4312
72.4305
72.4309
72.4315
72.4271
72.4269
72.4269
72.4279
72.4288
72.4196
72.4195
72.4198
72.4214
72.4225
72.4096
72.4093
72.4097
72.4116
72.4127
72.3972
72.3963
72.3965
72.3982
72.3994
72.3822
72.3799
72.3796
72.3808
72.3818
72.3638
72.3592
72.3576
72.3582
72.3588
72.3409
72.3319
72.328
72.3273
72.3271
72.3124
72.2956
72.2878
72.2847
72.2835
72.2733
72.2383
72.2231
72.2163
72.213
72.2264
72.1594
72.1361
72.1233
72.1174
72.1372
71.9347
71.8933
71.8689
71.8541
72.0896
71.7659
71.7746
71.7331
71.7107
71.8453
69.4291
69.7108
69.5205
69.4511
69.63
72.01
70.2082
71.2183
71.19
71.1213
71.1356
72.0613
70.2385
71.4047
71.4526
71.3623
71.3028
72.1117
70.3085
71.5117
71.4843
71.4678
71.3789
72.1978
70.5735
71.6596
71.5866
71.6072
71.5416
72.2285
70.5058
70.9429
70.6906
70.719
70.8355
72.3977
72.2538
72.3547
72.3323
72.3062
72.2786
72.4158
72.33
72.363
72.3709
72.3447
72.2994
72.4597
72.4437
72.46
72.4694
72.4552
72.4268
72.4664
72.4537
72.4596
72.4667
72.4571
72.4349
71.7612
71.7668
71.78
71.7889
71.7971
71.8028
71.718
71.7257
71.7411
71.751
71.7603
71.7667
71.7219
71.7305
71.747
71.7574
71.7671
71.7737
71.6962
71.7041
71.7211
71.7315
71.7414
71.7482
71.6742
71.6812
71.6979
71.708
71.7177
71.7242
71.6561
71.6719
71.6812
71.6902
71.6964
71.6116
71.6263
71.6349
71.6435
71.6493
71.6037
71.6174
71.6251
71.633
71.6383
53.8746
57.4436
57.2056
57.0278
58.71
63.6373
63.843
63.6926
63.4162
58.9321
64.155
64.5023
64.3079
63.8956
59.1674
64.4464
64.5769
64.5801
64.1457
59.4637
64.3833
64.3154
64.4232
64.1597
56.8212
60.456
59.784
59.9252
60.2196
70.7652
70.7713
70.7847
70.794
70.8024
70.8084
70.6882
70.6952
70.7101
70.7201
70.7292
70.7357
70.7025
70.7099
70.7258
70.7362
70.7456
70.7523
70.6792
70.6863
70.7025
70.713
70.7226
70.7294
70.6579
70.6647
70.6808
70.691
70.7004
70.707
70.6362
70.6422
70.6576
70.6672
70.6761
70.6823
70.5876
70.602
70.6109
70.6194
70.6253
70.6195
70.6326
70.6408
70.6486
70.6541
-6.80393
-7.34733
-7.38944
-7.38905
-7.27374
-7.53712
-7.55408
-7.55342
-7.39714
-7.64507
-7.66328
-7.6617
-7.63879
-7.39404
-7.63871
-7.6578
-7.65656
-7.63536
-7.385
-7.64489
-7.66591
-7.66632
-7.64641
-6.87613
-7.36604
-7.40178
-7.41487
-7.39062
-7.92766
-7.93092
-7.93376
-7.93619
-7.93826
-7.94
-7.92751
-7.93073
-7.93356
-7.93602
-7.93814
-7.93992
-7.92826
-7.93123
-7.93387
-7.9362
-7.93823
-7.93995
-7.9449
-7.94509
-7.94523
-7.94522
-7.94502
-7.94358
-7.94406
-7.94446
-7.94466
-7.94462
-7.94277
-7.94363
-7.94425
-7.94459
-7.94463
-7.94262
-7.94377
-7.94461
-7.94508
-7.94517
-7.94359
-7.94489
-7.94589
-7.94643
-7.94653
-7.94496
-7.94625
-7.94744
-7.94812
-7.94828
-7.94628
-7.94735
-7.9488
-7.94963
-7.94997
-7.94717
-7.94759
-7.94961
-7.95082
-7.95157
-7.94745
-7.9462
-7.94942
-7.95095
-7.95243
-7.94722
-7.94336
-7.94996
-7.95285
-7.95539
-7.94739
-7.94502
-7.95481
-7.95726
-7.96023
-7.95075
-7.94456
-7.95818
-7.95794
-7.96147
-7.95664
-7.95815
-7.96107
-7.96514
-7.97103
-7.98035
-7.99814
-8.0362
-8.2305
-7.83479
-7.85524
-7.78449
-7.78478
-8.3207
-7.69885
-7.64636
-7.56483
-7.56523
-8.3199
-7.73203
-7.70879
-7.62372
-7.62449
-8.29725
-7.72301
-7.69309
-7.60928
-7.61073
-8.23291
-7.7935
-7.78492
-7.72045
-7.72157
-7.78714
-8.17947
-7.80767
-7.80007
-7.74323
-7.74827
-7.81455
-8.09908
-8.24071
-8.26491
-8.2741
-8.2834
-8.29896
-8.02777
-8.03503
-8.0305
-8.02668
-8.033
-8.04463
-8.01574
-8.02205
-8.01774
-8.01401
-8.022
-8.0335
-8.00722
-8.00944
-8.00634
-8.00435
-8.00998
-8.01719
-8.93794
-8.94111
-8.94387
-8.94625
-8.94828
-8.94999
-8.93795
-8.94105
-8.94377
-8.94616
-8.94822
-8.94995
-8.93875
-8.94152
-8.94403
-8.94627
-8.94824
-8.94993
-8.95597
-8.95604
-8.95614
-8.95611
-8.95586
-8.95499
-8.9554
-8.95568
-8.95574
-8.95555
-8.95444
-8.95518
-8.95566
-8.95581
-8.95566
-8.95476
-8.95578
-8.95643
-8.95665
-8.95647
-8.95599
-8.95711
-8.95788
-8.95814
-8.95792
-8.95744
-8.95851
-8.95939
-8.95971
-8.95956
-8.95864
-8.95928
-8.96041
-8.9609
-8.96097
-8.95907
-8.95874
-8.96044
-8.96119
-8.9617
-8.95851
-8.95559
-8.95854
-8.9595
-8.96081
-8.95668
-8.94921
-8.95512
-8.95629
-8.95888
-8.95567
-8.94713
-8.95632
-8.9575
-8.96055
-8.95984
-8.95278
-8.96796
-8.96727
-8.97096
-8.96535
-8.96655
-8.96958
-8.97352
-8.97857
-8.98564
-8.99659
-9.0175
-9.06535
-8.86687
-8.85274
-8.79388
-8.79407
-9.0743
-8.7992
-8.82173
-8.75903
-8.75902
-9.07125
-8.84759
-8.93039
-8.86907
-8.86917
-9.06629
-8.83197
-8.91132
-8.84965
-8.85074
-9.0745
-8.89415
-8.98457
-8.94174
-8.94333
-9.06316
-8.86933
-8.89937
-8.84988
-8.85658
-8.9152
-9.0835
-9.08711
-9.06644
-9.04741
-9.05544
-9.09253
-9.03344
-9.02996
-9.01588
-9.00617
-9.01483
-9.03662
-9.0208
-9.02098
-9.01172
-9.00729
-9.01595
-9.0302
-9.0136
-9.01441
-9.00981
-9.00767
-9.0136
-9.02212
-9.94866
-9.95171
-9.95436
-9.95664
-9.95859
-9.96023
-9.94871
-9.9517
-9.95432
-9.95661
-9.95857
-9.96024
-9.94951
-9.95211
-9.95446
-9.9566
-9.9585
-9.96012
-9.96715
-9.96717
-9.96724
-9.9673
-9.96719
-9.96687
-9.96649
-9.96691
-9.96712
-9.96706
-9.96673
-9.96672
-9.96736
-9.96767
-9.96759
-9.96717
-9.96768
-9.96859
-9.96906
-9.96899
-9.96845
-9.96939
-9.97042
-9.971
-9.97091
-9.97026
-9.97107
-9.97208
-9.97281
-9.97276
-9.9721
-9.97238
-9.97302
-9.97404
-9.97407
-9.97356
-9.97278
-9.97233
-9.9738
-9.97367
-9.97354
-9.97205
-9.9686
-9.97151
-9.97163
-9.97232
-9.96915
-9.95996
-9.96565
-9.96521
-9.9673
-9.96727
-9.95545
-9.96385
-9.96363
-9.96668
-9.97119
-9.95704
-9.9694
-9.96732
-9.97077
-9.97641
-9.97637
-9.97918
-9.98291
-9.98762
-9.9942
-10.0038
-10.0233
-10.0439
-9.90949
-9.81748
-9.76012
-9.76023
-10.0607
-9.87383
-9.85837
-9.80297
-9.80283
-10.0605
-9.92034
-9.97276
-9.92293
-9.92286
-10.0548
-9.9042
-9.95868
-9.90748
-9.90844
-10.0755
-9.95964
-10.0287
-9.99376
-9.9954
-10.0547
-9.93557
-9.95897
-9.92045
-9.92798
-10.0789
-10.0676
-10.0605
-10.0382
-10.048
-10.0871
-10.043
-10.0379
-10.0219
-10.0119
-10.0228
-10.0506
-10.03
-10.0286
-10.0189
-10.0157
-10.0266
-10.0411
-10.0235
-10.0229
-10.0175
-10.016
-10.023
-10.0316
-10.9598
-10.9627
-10.9652
-10.9674
-10.9693
-10.9708
-10.9599
-10.9627
-10.9652
-10.9674
-10.9693
-10.9709
-10.9608
-10.9631
-10.9653
-10.9673
-10.9691
-10.9706
-10.9792
-10.9792
-10.9792
-10.9791
-10.9789
-10.9783
-10.9781
-10.9788
-10.9791
-10.9792
-10.9789
-10.9783
-10.9797
-10.9802
-10.9803
-10.98
-10.9792
-10.9812
-10.982
-10.9823
-10.9819
-10.981
-10.9832
-10.9843
-10.9848
-10.9843
-10.9832
-10.9851
-10.9863
-10.987
-10.9866
-10.9854
-10.9866
-10.9876
-10.9887
-10.9882
-10.987
-10.9871
-10.987
-10.9885
-10.9876
-10.9865
-10.9858
-10.9828
-10.9857
-10.9847
-10.9848
-10.9826
-10.9737
-10.9791
-10.9779
-10.9791
-10.9801
-10.9691
-10.9769
-10.9762
-10.9788
-10.9833
-10.9702
-10.981
-10.9785
-10.9814
-10.9866
-10.9861
-10.9886
-10.9919
-10.996
-11.0015
-11.0089
-11.0244
-11.0247
-10.9562
-10.8294
-10.7688
-10.769
-11.0461
-10.92
-10.874
-10.8232
-10.823
-11.0489
-10.9531
-10.9681
-10.9275
-10.927
-11.0456
-10.9383
-10.9588
-10.9169
-10.9171
-11.0733
-10.9882
-11.0251
-10.9957
-10.9964
-11.0507
-10.9759
-10.9846
-10.9543
-10.9606
-11.0727
-11.0556
-11.0588
-11.0383
-11.0453
-11.0483
-11.0413
-11.0269
-11.0183
-11.0321
-11.0572
-11.0377
-11.0344
-11.0258
-11.0231
-11.0349
-11.0482
-11.0323
-11.0306
-11.0258
-11.0251
-11.0325
-11.0395
-11.9711
-11.9739
-11.9763
-11.9784
-11.9801
-11.9816
-11.9713
-11.974
-11.9763
-11.9784
-11.9802
-11.9817
-11.9723
-11.9744
-11.9764
-11.9783
-11.98
-11.9814
-11.9912
-11.9912
-11.9913
-11.9912
-11.9908
-11.9901
-11.9905
-11.9912
-11.9916
-11.9915
-11.9911
-11.9903
-11.9918
-11.9928
-11.9933
-11.9933
-11.9927
-11.9916
-11.9947
-11.9956
-11.9959
-11.9953
-11.9939
-11.9971
-11.9984
-11.9988
-11.9982
-11.9967
-11.9992
-12.0007
-12.0017
-12.001
-11.9992
-12.0007
-12.0022
-12.0036
-12.0028
-12.0008
-12.0009
-12.0015
-12.0035
-12.0024
-12.0006
-11.9993
-11.9967
-11.9994
-11.9978
-11.9971
-11.9956
-11.9879
-11.9929
-11.9914
-11.9921
-11.9922
-11.983
-11.9905
-11.9896
-11.9916
-11.9947
-11.9834
-11.9931
-11.9906
-11.9927
-11.9962
-11.9958
-11.9982
-12.0012
-12.0048
-12.0096
-12.0155
-12.0282
-12.0162
-12
-11.8832
-11.8283
-11.8285
-12.0372
-11.9607
-11.9174
-11.879
-11.8787
-12.0396
-11.9828
-11.9853
-11.9587
-11.9579
-12.0379
-11.9708
-11.9777
-11.9491
-11.9487
-12.0716
-12.0134
-12.0332
-12.0125
-12.0123
-12.0532
-12.0068
-12.0077
-11.9854
-11.989
-12.0731
-12.0541
-12.0584
-12.039
-12.0433
-12.0563
-12.0469
-12.0379
-12.032
-12.0444
-12.0483
-12.044
-12.0366
-12.0347
-12.0457
-12.0572
-12.0439
-12.041
-12.0371
-12.0367
-12.0432
-12.0486
-12.9826
-12.9853
-12.9876
-12.9896
-12.9913
-12.9927
-12.9829
-12.9855
-12.9877
-12.9896
-12.9913
-12.9927
-12.984
-12.9859
-12.9877
-12.9895
-12.991
-12.9924
-13.0031
-13.0033
-13.0035
-13.0035
-13.0031
-13.0022
-13.0029
-13.0037
-13.0041
-13.0041
-13.0036
-13.0025
-13.0047
-13.0058
-13.0065
-13.0065
-13.0058
-13.0044
-13.0061
-13.0079
-13.0091
-13.0096
-13.0088
-13.0072
-13.0105
-13.0121
-13.013
-13.0123
-13.0103
-13.0126
-13.0147
-13.016
-13.0153
-13.013
-13.014
-13.016
-13.0179
-13.0171
-13.0147
-13.0139
-13.0146
-13.0167
-13.0155
-13.0136
-13.0116
-13.0095
-13.0124
-13.0107
-13.0096
-13.0076
-13.0013
-13.0065
-13.005
-13.0053
-13.0037
-12.9965
-13.0041
-13.0033
-13.0048
-13.0055
-12.9963
-13.006
-13.0037
-13.0052
-13.006
-13.0058
-13.0081
-13.0109
-13.0143
-13.0185
-13.0233
-13.0334
-13.0198
-13.0469
-12.958
-12.9167
-12.9168
-13.0385
-12.9965
-12.9707
-12.9487
-12.9483
-13.0409
-13.0111
-13.0111
-12.9977
-12.9968
-13.039
-13.001
-13.0025
-12.9863
-12.9854
-13.0748
-13.037
-13.0459
-13.0331
-13.0322
-13.0615
-13.0331
-13.03
-13.0142
-13.0156
-13.0782
-13.0605
-13.0633
-13.0467
-13.0503
-13.0664
-13.056
-13.0517
-13.0474
-13.0532
-13.0606
-13.0556
-13.0495
-13.048
-13.0572
-13.057
-13.0533
-13.05
-13.0496
-13.0543
-13.0579
-13.9942
-13.9969
-13.9991
-14.001
-14.0025
-14.0039
-13.9947
-13.9971
-13.9992
-14.001
-14.0026
-14.0039
-13.9959
-13.9976
-13.9992
-14.0008
-14.0023
-14.0036
-14.0146
-14.0152
-14.0157
-14.0159
-14.0155
-14.0146
-14.0149
-14.0161
-14.0168
-14.0169
-14.0163
-14.0151
-14.0171
-14.0186
-14.0195
-14.0198
-14.019
-14.0174
-14.0188
-14.0208
-14.0224
-14.023
-14.0225
-14.0206
-14.021
-14.0234
-14.0253
-14.0266
-14.0261
-14.0239
-14.0255
-14.0277
-14.0294
-14.029
-14.0267
-14.0266
-14.0286
-14.0306
-14.0298
-14.0277
-14.026
-14.0267
-14.029
-14.0277
-14.0257
-14.0233
-14.0216
-14.0248
-14.0234
-14.0221
-14.0193
-14.0142
-14.0197
-14.0185
-14.0185
-14.0155
-14.0097
-14.0177
-14.0171
-14.018
-14.0163
-14.0086
-14.0192
-14.017
-14.018
-14.0166
-14.0168
-14.0191
-14.0219
-14.0252
-14.0291
-14.0332
-14.0409
-14.0323
-14.0946
-14.0399
-14.0152
-14.0151
-14.0466
-14.0278
-14.0191
-14.015
-14.0145
-14.0501
-14.0378
-14.0383
-14.0357
-14.0347
-14.0486
-14.028
-14.0275
-14.0208
-14.0196
-14.0821
-14.0585
-14.0598
-14.053
-14.0516
-14.0738
-14.0563
-14.0506
-14.0395
-14.039
-14.0873
-14.0719
-14.0729
-14.0596
-14.0617
-14.0789
-14.0682
-14.0652
-14.0609
-14.0626
-14.0746
-14.0687
-14.0635
-14.0624
-14.0692
-14.0718
-14.0672
-14.0643
-14.0636
-14.0665
-15.006
-15.0086
-15.0107
-15.0125
-15.014
-15.0153
-15.0066
-15.0089
-15.0108
-15.0125
-15.014
-15.0153
-15.008
-15.0095
-15.0109
-15.0124
-15.0138
-15.015
-15.026
-15.0271
-15.028
-15.0285
-15.0283
-15.0273
-15.0269
-15.0285
-15.0295
-15.0299
-15.0294
-15.0281
-15.0295
-15.0313
-15.0325
-15.033
-15.0325
-15.0307
-15.0315
-15.0337
-15.0354
-15.0364
-15.036
-15.034
-15.0339
-15.0363
-15.0383
-15.0397
-15.0394
-15.0374
-15.0356
-15.0382
-15.0403
-15.042
-15.0417
-15.0396
-15.039
-15.0407
-15.0427
-15.042
-15.0398
-15.0381
-15.0386
-15.0409
-15.0398
-15.0378
-15.0353
-15.0338
-15.0372
-15.036
-15.0347
-15.0314
-15.0272
-15.0331
-15.0322
-15.032
-15.0281
-15.0232
-15.0316
-15.0311
-15.0316
-15.0282
-15.021
-15.0329
-15.0308
-15.0314
-15.0284
-15.0292
-15.0314
-15.0344
-15.0378
-15.0415
-15.0454
-15.0511
-15.0505
-15.1369
-15.1154
-15.1108
-15.1103
-15.0596
-15.0566
-15.0532
-15.0606
-15.06
-15.065
-15.0639
-15.0648
-15.0695
-15.0684
-15.0636
-15.0531
-15.0516
-15.0516
-15.0501
-15.0933
-15.0791
-15.0752
-15.0727
-15.0708
-15.0891
-15.0777
-15.0702
-15.0621
-15.0602
-15.0994
-15.0862
-15.0854
-15.0747
-15.0752
-15.093
-15.0824
-15.079
-15.0743
-15.0744
-15.0901
-15.0832
-15.0787
-15.0776
-15.0807
-15.0878
-15.0826
-15.0794
-15.078
-15.0787
-16.0179
-16.0204
-16.0225
-16.0242
-16.0257
-16.0268
-16.0187
-16.0208
-16.0227
-16.0243
-16.0257
-16.0269
-16.0202
-16.0215
-16.0228
-16.0241
-16.0254
-16.0265
-16.0377
-16.0394
-16.0407
-16.0415
-16.0415
-16.0404
-16.0392
-16.0413
-16.0426
-16.0433
-16.043
-16.0415
-16.0422
-16.0443
-16.0457
-16.0466
-16.0462
-16.0443
-16.0446
-16.0469
-16.0487
-16.0498
-16.0495
-16.0476
-16.0472
-16.0496
-16.0514
-16.0527
-16.0525
-16.0506
-16.0491
-16.0514
-16.0531
-16.0546
-16.0542
-16.0522
-16.05
-16.052
-16.0532
-16.0549
-16.0542
-16.0521
-16.0509
-16.051
-16.0533
-16.0523
-16.0504
-16.0483
-16.0467
-16.0503
-16.0493
-16.0479
-16.0449
-16.0411
-16.0472
-16.0465
-16.046
-16.0422
-16.0374
-16.0462
-16.0456
-16.0457
-16.0421
-16.0344
-16.0474
-16.0452
-16.0454
-16.042
-16.0434
-16.0457
-16.0488
-16.0525
-16.0563
-16.0604
-16.0646
-16.071
-16.1704
-16.1678
-16.1806
-16.1798
-16.0762
-16.0825
-16.0761
-16.0847
-16.084
-16.0838
-16.089
-16.0894
-16.0981
-16.0969
-16.0823
-16.0768
-16.0738
-16.0776
-16.0758
-16.1074
-16.0992
-16.0917
-16.0916
-16.0893
-16.1064
-16.098
-16.0892
-16.0827
-16.0799
-16.1138
-16.1022
-16.0996
-16.0907
-16.0896
-16.1086
-16.098
-16.0934
-16.0882
-16.0875
-16.1066
-16.0988
-16.0948
-16.0928
-16.0928
-16.1046
-16.0986
-16.0949
-16.0924
-16.0908
-17.0298
-17.0324
-17.0344
-17.0361
-17.0375
-17.0386
-17.0308
-17.0329
-17.0346
-17.0362
-17.0375
-17.0386
-17.0325
-17.0337
-17.0348
-17.036
-17.0372
-17.0383
-17.0502
-17.0526
-17.0543
-17.0553
-17.0553
-17.0542
-17.0522
-17.0547
-17.0565
-17.0574
-17.0571
-17.0554
-17.0558
-17.058
-17.0598
-17.0606
-17.0602
-17.0584
-17.0586
-17.0609
-17.0626
-17.0636
-17.0633
-17.0615
-17.0616
-17.0637
-17.0651
-17.0662
-17.0659
-17.0641
-17.0637
-17.0655
-17.0666
-17.0678
-17.0673
-17.0654
-17.0648
-17.0661
-17.0666
-17.0681
-17.0673
-17.0652
-17.0646
-17.0652
-17.0647
-17.0668
-17.0657
-17.0638
-17.0631
-17.0611
-17.0646
-17.0636
-17.0621
-17.0604
-17.0562
-17.0626
-17.0617
-17.0609
-17.0583
-17.053
-17.062
-17.0611
-17.0608
-17.0582
-17.0494
-17.0631
-17.0606
-17.0604
-17.0578
-17.0595
-17.0621
-17.0655
-17.0695
-17.0737
-17.0783
-17.0812
-17.0924
-17.1961
-17.196
-17.2156
-17.2145
-17.096
-17.107
-17.0967
-17.1032
-17.1024
-17.1054
-17.1131
-17.1114
-17.1216
-17.1201
-17.1034
-17.0996
-17.0944
-17.0997
-17.0975
-17.1237
-17.1191
-17.1086
-17.1096
-17.1068
-17.1252
-17.1176
-17.1074
-17.1015
-17.098
-17.13
-17.1191
-17.1145
-17.1066
-17.1042
-17.1253
-17.1143
-17.1084
-17.1029
-17.1011
-17.1238
-17.115
-17.1106
-17.107
-17.1051
-17.1219
-17.1147
-17.1102
-17.1063
-17.1029
-18.042
-18.0446
-18.0466
-18.0482
-18.0495
-18.0506
-18.0432
-18.0452
-18.0468
-18.0483
-18.0496
-18.0506
-18.0451
-18.0461
-18.047
-18.0481
-18.0492
-18.0503
-18.0639
-18.067
-18.0691
-18.0701
-18.07
-18.0688
-18.0664
-18.0694
-18.0714
-18.0723
-18.0719
-18.0702
-18.0706
-18.0731
-18.0747
-18.0754
-18.075
-18.0732
-18.0739
-18.0762
-18.0775
-18.0783
-18.0779
-18.0761
-18.0774
-18.079
-18.08
-18.0808
-18.0803
-18.0785
-18.0798
-18.081
-18.0816
-18.0823
-18.0816
-18.0796
-18.0813
-18.0819
-18.0817
-18.0827
-18.0816
-18.0796
-18.0815
-18.0815
-18.0803
-18.0819
-18.0806
-18.0786
-18.0807
-18.0801
-18.0774
-18.0806
-18.0793
-18.0776
-18.0781
-18.0732
-18.0794
-18.0781
-18.077
-18.0766
-18.0703
-18.0792
-18.0778
-18.077
-18.0767
-18.0664
-18.0803
-18.0772
-18.0766
-18.0759
-18.0779
-18.0807
-18.0845
-18.089
-18.0935
-18.0986
-18.1009
-18.1146
-18.2182
-18.2133
-18.2336
-18.2321
-18.1186
-18.1321
-18.1191
-18.1235
-18.1224
-18.1285
-18.1362
-18.131
-18.1408
-18.139
-18.1261
-18.1219
-18.1141
-18.1195
-18.1168
-18.1424
-18.1386
-18.1255
-18.1266
-18.1232
-18.1448
-18.1364
-18.1247
-18.1188
-18.1146
-18.1472
-18.1361
-18.1293
-18.1216
-18.1183
-18.1425
-18.1307
-18.1234
-18.1173
-18.1145
-18.1412
-18.1311
-18.1253
-18.1205
-18.1172
-18.1391
-18.1305
-18.1247
-18.1192
-18.1145
-19.0542
-19.0569
-19.0589
-19.0605
-19.0618
-19.0628
-19.0557
-19.0577
-19.0592
-19.0606
-19.0618
-19.0628
-19.0578
-19.0587
-19.0595
-19.0605
-19.0615
-19.0625
-19.0792
-19.0829
-19.0852
-19.0861
-19.086
-19.0849
-19.0821
-19.0856
-19.0876
-19.0883
-19.088
-19.0864
-19.087
-19.0896
-19.091
-19.0915
-19.0911
-19.0893
-19.0909
-19.0929
-19.094
-19.0945
-19.0939
-19.0921
-19.0948
-19.0961
-19.0966
-19.0969
-19.0961
-19.0942
-19.0978
-19.0985
-19.0983
-19.0985
-19.0974
-19.0954
-19.0998
-19.0998
-19.0988
-19.0991
-19.0977
-19.0955
-19.1006
-19.1
-19.0979
-19.0989
-19.0972
-19.095
-19.1005
-19.0993
-19.0958
-19.0984
-19.0966
-19.0946
-19.0998
-19.0979
-19.0921
-19.0979
-19.096
-19.0945
-19.0969
-19.0895
-19.098
-19.0959
-19.0946
-19.0973
-19.0856
-19.0991
-19.0953
-19.0941
-19.0964
-19.0986
-19.1017
-19.1058
-19.1107
-19.1154
-19.1209
-19.1229
-19.1376
-19.2393
-19.2278
-19.246
-19.2441
-19.1431
-19.1589
-19.1453
-19.149
-19.1473
-19.1523
-19.1588
-19.1496
-19.1577
-19.1554
-19.1493
-19.1439
-19.1335
-19.1383
-19.1351
-19.1622
-19.1572
-19.1419
-19.1424
-19.1384
-19.1634
-19.1539
-19.1406
-19.1343
-19.1295
-19.1651
-19.152
-19.1428
-19.1351
-19.1311
-19.1598
-19.1463
-19.1374
-19.1306
-19.1269
-19.158
-19.1461
-19.1388
-19.1326
-19.1284
-19.1554
-19.1451
-19.1378
-19.1308
-19.1253
-20.0666
-20.0694
-20.0714
-20.073
-20.0743
-20.0754
-20.0684
-20.0703
-20.0718
-20.0732
-20.0744
-20.0754
-20.0707
-20.0715
-20.0722
-20.0731
-20.0741
-20.075
-20.0964
-20.1006
-20.1029
-20.104
-20.1039
-20.1027
-20.0998
-20.1035
-20.1055
-20.1062
-20.1059
-20.1042
-20.1053
-20.1078
-20.1091
-20.1095
-20.1089
-20.1071
-20.1098
-20.1116
-20.1124
-20.1125
-20.1117
-20.1097
-20.1143
-20.1152
-20.1152
-20.115
-20.1138
-20.1117
-20.1178
-20.118
-20.1172
-20.1167
-20.1151
-20.1128
-20.1204
-20.1199
-20.1181
-20.1177
-20.1157
-20.1131
-20.1218
-20.1206
-20.1177
-20.118
-20.1157
-20.113
-20.1222
-20.1205
-20.1161
-20.1181
-20.1156
-20.1131
-20.1221
-20.1197
-20.1128
-20.118
-20.1154
-20.1133
-20.1222
-20.119
-20.1105
-20.1183
-20.1153
-20.1134
-20.1198
-20.1069
-20.1194
-20.1147
-20.113
-20.119
-20.1212
-20.1245
-20.1287
-20.1339
-20.1387
-20.1444
-20.1463
-20.161
-20.2612
-20.2436
-20.259
-20.2564
-20.1686
-20.188
-20.177
-20.1815
-20.179
-20.1756
-20.1801
-20.1662
-20.172
-20.1692
-20.1721
-20.1653
-20.1527
-20.1567
-20.1528
-20.1813
-20.1744
-20.1571
-20.1566
-20.1521
-20.1804
-20.1694
-20.1545
-20.1477
-20.1425
-20.181
-20.1656
-20.1543
-20.1465
-20.1421
-20.1751
-20.1597
-20.1492
-20.1418
-20.1375
-20.1731
-20.1594
-20.1503
-20.1428
-20.138
-20.17
-20.1578
-20.1487
-20.1404
-20.1344
-21.079
-21.082
-21.0841
-21.0857
-21.0871
-21.0882
-21.0812
-21.0831
-21.0846
-21.086
-21.0872
-21.0882
-21.0837
-21.0844
-21.085
-21.0859
-21.087
-21.0879
-21.1155
-21.1201
-21.1228
-21.124
-21.1239
-21.1226
-21.1194
-21.1233
-21.1254
-21.1262
-21.1258
-21.124
-21.1256
-21.1282
-21.1294
-21.1296
-21.1288
-21.1269
-21.1307
-21.1324
-21.1329
-21.1327
-21.1315
-21.1293
-21.1359
-21.1365
-21.136
-21.1352
-21.1335
-21.1312
-21.14
-21.1397
-21.1382
-21.137
-21.1348
-21.1322
-21.1431
-21.142
-21.1394
-21.1382
-21.1355
-21.1326
-21.145
-21.1432
-21.1394
-21.1389
-21.1358
-21.1327
-21.1458
-21.1435
-21.1382
-21.1393
-21.1361
-21.1331
-21.146
-21.1431
-21.1352
-21.1395
-21.1361
-21.1335
-21.1462
-21.1426
-21.1331
-21.1399
-21.1361
-21.1336
-21.1476
-21.1439
-21.13
-21.141
-21.1355
-21.1332
-21.1432
-21.1453
-21.1485
-21.1527
-21.1578
-21.1626
-21.1682
-21.1702
-21.1844
-21.2841
-21.2617
-21.2745
-21.2712
-21.1944
-21.218
-21.2104
-21.2171
-21.2136
-21.1977
-21.2
-21.1822
-21.1853