/*--------------------------------*- C++ -*----------------------------------*\
| =========                 |                                                 |
| \\      /  F ield         | OpenFOAM: The Open Source CFD Toolbox           |
|  \\    /   O peration     | Version:  2.3.1                                 |
|   \\  /    A nd           | Web:      www.OpenFOAM.org                      |
|    \\/     M anipulation  |                                                 |
\*---------------------------------------------------------------------------*/
FoamFile
{
    version     2.0;
    format      ascii;
    class       volScalarField;
    location    "600";
    object      p_rgh;
}
// * * * * * * * * * * * * * * * * * * * * * * * * * * * * * * * * * * * * * //

dimensions      [0 2 -2 0 0 0 0];

internalField   nonuniform List<scalar> 
6852
(
78.4164
78.4355
78.4525
78.4665
78.4776
78.4856
78.4036
78.4224
78.4393
78.4531
78.4641
78.4721
78.4326
78.4514
78.466
78.4776
78.486
78.4806
78.4988
78.5118
78.522
78.529
78.4855
78.5028
78.5157
78.526
78.5332
78.4958
78.5134
78.5261
78.536
78.5429
78.4876
78.5056
78.5185
78.5287
78.5357
78.4643
78.4818
78.4943
78.504
78.5108
78.4271
78.4434
78.4548
78.4638
78.47
78.376
78.3903
78.4001
78.4082
78.4137
78.3159
78.3273
78.3351
78.3418
78.3463
78.242
78.2508
78.2568
78.2622
78.2659
78.177
78.1826
78.1865
78.1903
78.193
78.1261
78.1292
78.1312
78.1335
78.1354
78.0886
78.0897
78.0904
78.0917
78.0929
78.0613
78.0612
78.0612
78.0617
78.0626
78.0412
78.0405
78.0401
78.0403
78.041
78.0255
78.0244
78.0238
78.0239
78.0245
78.0122
78.0109
78.0101
78.0102
78.0109
78.0003
77.9987
77.9979
77.9979
77.9987
77.9891
77.9872
77.9861
77.9861
77.9871
77.9783
77.9759
77.9745
77.9744
77.9755
77.9676
77.9645
77.9627
77.9624
77.9635
77.9569
77.953
77.9505
77.9499
77.951
77.9463
77.9412
77.938
77.9368
77.9379
77.9359
77.9294
77.925
77.9233
77.9242
77.9259
77.9177
77.9122
77.9097
77.9101
77.9143
77.9167
77.9065
77.8999
77.8967
77.8963
77.9005
77.9094
77.8972
77.8899
77.8864
77.8846
77.8883
77.9044
77.8903
77.8828
77.88
77.8757
77.8777
77.9047
77.8901
77.8846
77.8844
77.8768
77.8754
77.9087
77.8936
77.8932
77.901
77.8844
77.8767
77.9214
77.9111
77.9176
77.9239
77.9106
77.8956
77.9355
77.9254
77.934
77.9355
77.9279
77.9116
77.9448
77.9332
77.9385
77.9382
77.9319
77.9191
77.9534
77.943
77.9481
77.9478
77.9397
77.9276
77.9704
77.9625
77.9691
77.9689
77.9579
77.9471
77.9954
77.9943
78.0047
78.0052
77.9932
77.9835
78.0179
78.0194
78.0305
78.0313
78.0195
78.01
78.036
78.0379
78.0464
78.0478
78.0378
78.0282
78.044
78.0435
78.0475
78.0491
78.0413
78.0322
78.3971
78.4158
78.4328
78.4468
78.458
78.4659
78.3779
78.3964
78.4133
78.4272
78.4384
78.4464
78.3752
78.3975
78.417
78.4322
78.4442
78.4528
78.438
78.4577
78.4718
78.4829
78.4905
78.4453
78.4638
78.4776
78.4885
78.4963
78.4544
78.4731
78.4866
78.4972
78.5046
78.4437
78.4625
78.476
78.4866
78.494
78.4209
78.4392
78.452
78.4621
78.4691
78.3844
78.4013
78.413
78.4223
78.4287
78.3341
78.3489
78.359
78.3673
78.373
78.2763
78.2881
78.296
78.3028
78.3075
78.2012
78.2102
78.2163
78.2217
78.2255
78.1416
78.1469
78.1505
78.1542
78.1568
78.0971
78.0999
78.1016
78.1038
78.1056
78.0672
78.0681
78.0686
78.0697
78.0708
78.0467
78.0466
78.0464
78.0469
78.0476
78.0316
78.0309
78.0304
78.0306
78.0312
78.0193
78.0182
78.0175
78.0176
78.0183
78.0081
78.0068
78.0061
78.0061
78.0069
77.9975
77.996
77.9952
77.9953
77.9961
77.9871
77.9853
77.9843
77.9844
77.9853
77.9767
77.9744
77.9732
77.9731
77.9742
77.9661
77.9632
77.9614
77.9612
77.9624
77.9554
77.9515
77.9491
77.9485
77.9497
77.9444
77.9393
77.936
77.9349
77.936
77.9334
77.9266
77.9222
77.9204
77.9213
77.9226
77.9138
77.908
77.9055
77.9059
77.9123
77.9009
77.8937
77.8902
77.8898
77.8942
77.9037
77.8898
77.8815
77.8776
77.8757
77.8796
77.8966
77.8789
77.8702
77.8665
77.8617
77.864
77.8961
77.877
77.8716
77.8712
77.8621
77.8605
77.8967
77.8712
77.871
77.8778
77.8595
77.8509
77.9112
77.8916
77.9047
77.9204
77.8946
77.8766
77.9259
77.9078
77.9287
77.9337
77.9197
77.8963
77.9343
77.9152
77.9345
77.9293
77.9188
77.8991
77.947
77.9286
77.9453
77.941
77.9251
77.9092
77.965
77.9503
77.9708
77.9675
77.9436
77.9271
77.9932
77.9927
78.0175
78.0182
77.9933
77.9753
78.0148
78.0188
78.0412
78.0453
78.0244
78.0055
78.0341
78.0391
78.0553
78.0594
78.0465
78.0307
78.0433
78.0445
78.0519
78.0564
78.0483
78.035
78.3644
78.3806
78.3961
78.4094
78.4202
78.4281
78.3426
78.359
78.3752
78.3888
78.3998
78.4077
78.333
78.3547
78.3741
78.3892
78.4014
78.41
78.3696
78.3933
78.414
78.4286
78.4401
78.448
78.4035
78.4225
78.4363
78.4475
78.4553
78.4136
78.4331
78.4467
78.4576
78.4651
78.3999
78.4195
78.433
78.4439
78.4513
78.3769
78.3958
78.4086
78.419
78.4261
78.34
78.3573
78.3689
78.3785
78.3849
78.2879
78.303
78.3129
78.3215
78.3272
78.2314
78.2432
78.2507
78.2575
78.2621
78.1461
78.1547
78.1602
78.1655
78.1692
78.0932
78.0968
78.099
78.1021
78.1043
78.058
78.0587
78.0588
78.0601
78.0613
78.0389
78.038
78.0369
78.0369
78.0373
78.0279
78.0262
78.0245
78.0238
78.0238
78.02
78.0183
78.0168
78.016
78.016
78.0131
78.0117
78.0106
78.0102
78.0103
78.006
78.005
78.0041
78.0039
78.0043
77.9981
77.9971
77.9964
77.9964
77.997
77.9892
77.9881
77.9873
77.9875
77.9883
77.9791
77.9776
77.9767
77.9768
77.9777
77.9678
77.9656
77.9644
77.9643
77.9653
77.9554
77.9522
77.9502
77.9498
77.9508
77.9421
77.9371
77.934
77.933
77.9339
77.9278
77.9203
77.9156
77.9135
77.9142
77.9126
77.9016
77.8946
77.8912
77.8913
77.8961
77.8798
77.8696
77.8644
77.8634
77.8796
77.8566
77.8431
77.836
77.8332
77.8392
77.86
77.8227
77.8044
77.7952
77.788
77.7937
77.8487
77.7985
77.7815
77.7746
77.7607
77.7632
77.8265
77.7245
77.7039
77.7014
77.6723
77.6673
77.8448
77.7476
77.7533
77.7727
77.7245
77.704
77.8677
77.7787
77.808
77.8181
77.7794
77.7434
77.8843
77.7957
77.8299
77.8175
77.7902
77.7561
77.9075
77.8295
77.8578
77.8402
77.8109
77.7825
77.9346
77.8751
77.9018
77.8913
77.8446
77.8198
77.9815
77.9679
78.0074
78.0082
77.9641
77.9346
78.0088
78.0066
78.0424
78.0474
78.0109
77.981
78.034
78.0376
78.0633
78.0684
78.0484
78.0244
78.0456
78.0447
78.0555
78.0616
78.052
78.032
78.3442
78.3567
78.3695
78.3808
78.3903
78.3973
78.3261
78.338
78.3504
78.3613
78.3704
78.3772
78.3045
78.3199
78.3357
78.3491
78.3603
78.3685
78.3332
78.354
78.374
78.3876
78.3987
78.4064
78.3437
78.3632
78.3822
78.3955
78.4067
78.4145
78.3741
78.394
78.4074
78.4186
78.4261
78.357
78.3771
78.3905
78.4017
78.4092
78.3337
78.3532
78.3658
78.3765
78.3837
78.2965
78.3143
78.3256
78.3354
78.342
78.2426
78.2581
78.2677
78.2765
78.2823
78.1872
78.1991
78.206
78.213
78.2176
78.0828
78.0906
78.0954
78.1006
78.104
78.0374
78.0389
78.0396
78.0419
78.0436
78.0156
78.015
78.014
78.0146
78.0155
78.0109
78.0087
78.0069
78.0063
78.0063
78.0097
78.0067
78.0046
78.0037
78.0036
78.0093
78.0066
78.0047
78.0039
78.004
78.0075
78.0055
78.0041
78.0036
78.0038
78.0036
78.0021
78.0011
78.0012
78.0017
77.9974
77.9964
77.9958
77.9962
77.9969
77.9892
77.9882
77.9879
77.9885
77.9894
77.979
77.9778
77.9773
77.9779
77.9789
77.9671
77.9651
77.964
77.9645
77.9655
77.9533
77.9499
77.948
77.9479
77.9488
77.9374
77.932
77.9286
77.9276
77.9284
77.9195
77.9108
77.9051
77.9028
77.9032
77.8992
77.8855
77.8768
77.8725
77.872
77.8751
77.8523
77.8388
77.8315
77.8293
77.8489
77.8131
77.7939
77.7831
77.7785
77.8121
77.7432
77.7129
77.6963
77.6859
77.6971
77.79
77.6924
77.6635
77.6457
77.6283
77.6403
77.7335
77.4753
77.4283
77.4022
77.3647
77.3809
77.7741
77.543
77.5551
77.5554
77.5
77.4984
77.8099
77.5917
77.6398
77.6517
77.5901
77.5652
77.8366
77.6171
77.6867
77.6623
77.6251
77.5906
77.8759
77.6858
77.7529
77.7162
77.6885
77.6559
77.9143
77.7631
77.8013
77.7744
77.7262
77.7058
77.9873
77.9503
78.0029
78.004
77.954
77.9142
78.0096
77.993
78.0356
78.0457
78.0047
77.9624
78.0373
78.0361
78.065
78.0752
78.055
78.0223
78.0506
78.045
78.0553
78.0655
78.0563
78.0302
78.3467
78.3577
78.3685
78.378
78.386
78.3919
78.3342
78.3437
78.3532
78.3616
78.3687
78.3739
78.3137
78.3237
78.3346
78.3439
78.352
78.3582
78.3303
78.3457
78.3619
78.3726
78.3818
78.3879
78.3185
78.3359
78.3541
78.3662
78.3767
78.3838
78.3247
78.3438
78.3635
78.3762
78.387
78.3942
78.3218
78.342
78.3547
78.3657
78.373
78.297
78.3166
78.3287
78.3392
78.3462
78.258
78.2759
78.2865
78.2962
78.3026
78.2008
78.2164
78.2253
78.234
78.2397
78.1382
78.1489
78.1546
78.1611
78.1654
78.0214
78.0242
78.027
78.0311
78.0331
77.9797
77.9696
77.9659
77.9668
77.9662
77.974
77.9665
77.9611
77.9599
77.9607
77.9918
77.9859
77.9803
77.9772
77.9763
78.0016
77.9971
77.9925
77.9892
77.9875
78.0061
78.0029
77.9996
77.9973
77.9961
78.0068
78.0045
78.0022
78.0008
78.0003
78.0046
78.0032
78.0017
78.001
78.001
77.9997
77.9988
77.998
77.9979
77.9982
77.9923
77.9917
77.9912
77.9915
77.9919
77.9825
77.9819
77.9815
77.982
77.9825
77.9705
77.9694
77.9688
77.9693
77.9697
77.956
77.9538
77.9527
77.9528
77.9529
77.9387
77.9344
77.9322
77.9316
77.9313
77.9176
77.9094
77.9052
77.9035
77.9024
77.8919
77.8769
77.8691
77.8656
77.8635
77.8581
77.8284
77.8139
77.807
77.8029
77.8174
77.7624
77.7387
77.7268
77.7197
77.7465
77.6022
77.5535
77.5317
77.5157
77.6935
77.4425
77.3901
77.3578
77.332
77.3534
77.4968
76.2559
76.1273
76.071
75.9933
76.0162
77.5624
76.3894
76.4733
76.4717
76.3732
76.3481
77.6141
76.4884
76.6646
76.7294
76.6019
76.5107
77.6627
76.573
76.801
76.7792
76.7311
76.6112
77.7381
76.7585
76.9375
76.8481
76.8511
76.7727
77.8196
76.9718
76.9571
76.8554
76.8302
76.825
77.9802
77.8541
77.897
77.8867
77.8455
77.798
78.0011
77.9449
77.975
77.9854
77.9496
77.8966
78.0382
78.0265
78.0472
78.0595
78.0426
78.007
78.0452
78.0349
78.0423
78.0533
78.0435
78.017
78.3552
78.3673
78.379
78.3891
78.3975
78.4037
78.3427
78.3536
78.3642
78.3733
78.3808
78.3861
78.323
78.3342
78.3451
78.3538
78.3613
78.367
78.3423
78.3531
78.3667
78.3762
78.3845
78.3901
78.3055
78.3205
78.3379
78.3489
78.3588
78.3655
78.3072
78.324
78.3431
78.3547
78.365
78.3719
78.2812
78.2973
78.3169
78.3287
78.3392
78.3463
78.2705
78.2895
78.3007
78.3109
78.3177
78.2295
78.2469
78.2567
78.2662
78.2724
78.1614
78.177
78.1857
78.1944
78.2
78.0385
78.0501
78.0559
78.0621
78.0658
77.8329
77.8439
77.8508
77.8559
77.8612
77.9411
77.9455
77.9499
77.9531
77.9558
77.9502
77.9488
77.9495
77.9513
77.9524
77.9771
77.9728
77.9705
77.9701
77.9709
77.9922
77.9875
77.9841
77.9826
77.9832
78.002
77.9991
77.9962
77.9945
77.9945
78.0047
78.0029
78.0013
78.0008
78.0009
78.0031
78.0023
78.0017
78.0021
78.0026
77.9983
77.998
77.998
77.9991
77.9999
77.9907
77.9906
77.991
77.9925
77.9936
77.9807
77.9805
77.9809
77.9827
77.9838
77.9684
77.9674
77.9676
77.9693
77.9705
77.9533
77.951
77.9507
77.952
77.9529
77.9349
77.9303
77.9288
77.9293
77.9299
77.912
77.9031
77.8991
77.8984
77.8983
77.8836
77.8667
77.8589
77.8558
77.8546
77.8444
77.8094
77.7943
77.7874
77.7841
77.7976
77.7306
77.7072
77.6944
77.6885
77.7084
77.5058
77.4645
77.44
77.4252
77.6607
77.337
77.3457
77.3043
77.2819
77.4165
75.0003
75.2819
75.0916
75.0222
75.2012
77.5812
75.7793
76.7894
76.7611
76.6925
76.7067
77.6324
75.8096
76.9758
77.0237
76.9334
76.8739
77.6829
75.8797
77.0829
77.0555
77.0389
76.95
77.7689
76.1447
77.2307
77.1577
77.1783
77.1127
77.7996
76.0769
76.514
76.2617
76.2901
76.4066
77.9688
77.825
77.9259
77.9034
77.8773
77.8498
77.9869
77.9011
77.9341
77.942
77.9159
77.8705
78.0308
78.0148
78.0311
78.0406
78.0263
77.9979
78.0375
78.0249
78.0307
78.0378
78.0283
78.0061
78.3453
78.3509
78.3641
78.3729
78.3811
78.3868
78.3021
78.3098
78.3251
78.3351
78.3443
78.3508
78.3059
78.3145
78.3311
78.3415
78.3511
78.3578
78.2803
78.2882
78.3051
78.3156
78.3254
78.3322
78.2583
78.2653
78.282
78.2921
78.3017
78.3083
78.2402
78.2559
78.2652
78.2743
78.2804
78.1956
78.2104
78.219
78.2276
78.2334
78.1878
78.2015
78.2092
78.2171
78.2223
60.2054
63.7744
63.5364
63.3586
65.0408
69.9681
70.1739
70.0235
69.7471
65.2629
70.4859
70.8332
70.6387
70.2264
65.4982
70.7772
70.9077
70.911
70.4765
65.7945
70.7141
70.6462
70.754
70.4905
63.152
66.7868
66.1148
66.256
66.5504
78.3621
78.3682
78.3817
78.391
78.3994
78.4053
78.2852
78.2922
78.307
78.3171
78.3262
78.3326
78.2995
78.3069
78.3228
78.3332
78.3426
78.3493
78.2762
78.2833
78.2995
78.31
78.3196
78.3263
78.2549
78.2617
78.2778
78.2879
78.2974
78.304
78.2332
78.2392
78.2546
78.2641
78.2731
78.2793
78.1846
78.199
78.2079
78.2164
78.2223
78.2165
78.2296
78.2378
78.2456
78.2511
0.539807
-0.00358048
-0.0456837
-0.0452956
0.0700113
-0.193364
-0.210325
-0.209669
-0.0533888
-0.301314
-0.319529
-0.317948
-0.295041
-0.05029
-0.294957
-0.314046
-0.312806
-0.291607
-0.0412454
-0.301136
-0.322161
-0.322569
-0.302655
0.467618
-0.0222891
-0.0580314
-0.0711177
-0.0468697
0.655878
0.65259
0.64973
0.647272
0.645177
0.643416
0.656047
0.652808
0.649952
0.647467
0.645328
0.643521
0.655326
0.652316
0.649652
0.647293
0.645236
0.643482
0.641945
0.642232
0.642487
0.642841
0.643368
0.643417
0.643414
0.643417
0.643537
0.643834
0.644701
0.64428
0.644013
0.643954
0.644126
0.645333
0.644526
0.643959
0.643706
0.643784
0.644803
0.643748
0.642933
0.642527
0.642544
0.64382
0.642662
0.641562
0.64095
0.640852
0.642819
0.641756
0.640274
0.639378
0.638988
0.642091
0.641276
0.638705
0.636904
0.635697
0.641247
0.638655
0.631399
0.626141
0.622591
0.636709
0.599226
0.565743
0.540394
0.531908
0.621932
0.468915
0.429658
0.417307
0.411597
0.589655
0.42055
0.403594
0.403634
0.400064
0.599035
0.607065
0.610293
0.610364
0.607484
0.600561
0.58505
0.549944
0.362864
0.774071
0.754587
0.825418
0.825128
0.276584
0.910614
0.963539
1.04509
1.04469
0.279425
0.877578
0.901114
0.986194
0.985429
0.30328
0.886645
0.916817
1.00064
0.999185
0.36768
0.81611
0.82498
0.889461
0.888338
0.822757
0.421209
0.801308
0.809537
0.866436
0.861384
0.795026
0.498618
0.359752
0.336235
0.327407
0.317556
0.301116
0.568943
0.561976
0.566802
0.570689
0.563604
0.551351
0.580337
0.574246
0.578846
0.58258
0.573931
0.56201
0.588552
0.58659
0.589981
0.592012
0.585954
0.578399
0.655318
0.652131
0.649351
0.646954
0.644904
0.643176
0.655274
0.652152
0.649421
0.647026
0.64496
0.643218
0.65457
0.651771
0.649238
0.646973
0.644977
0.643267
0.64204
0.642387
0.642557
0.642831
0.643323
0.64369
0.643761
0.643815
0.643973
0.644292
0.644956
0.644611
0.6444
0.644396
0.644618
0.645323
0.644562
0.644055
0.643889
0.644063
0.644659
0.643634
0.642872
0.642571
0.642715
0.643628
0.642471
0.641441
0.640942
0.640931
0.642585
0.641575
0.640027
0.639114
0.638721
0.641766
0.640758
0.637571
0.635504
0.63416
0.639952
0.635491
0.625474
0.618711
0.614652
0.631893
0.587376
0.54352
0.513228
0.501539
0.610886
0.464828
0.418126
0.404488
0.397787
0.578131
0.40234
0.378906
0.378686
0.374792
0.592276
0.603059
0.607505
0.608587
0.607202
0.603104
0.595035
0.578515
0.540515
0.753683
0.769827
0.828943
0.828751
0.535794
0.822566
0.801046
0.863815
0.863825
0.540986
0.774561
0.692431
0.753773
0.753682
0.547195
0.790292
0.711498
0.773194
0.772104
0.538902
0.727982
0.638214
0.681083
0.679487
0.5503
0.751622
0.722764
0.772407
0.765694
0.706866
0.52761
0.526654
0.547764
0.567108
0.558575
0.52063
0.576011
0.579981
0.594284
0.603763
0.594164
0.571657
0.587525
0.587427
0.596836
0.600957
0.591504
0.576859
0.593799
0.593172
0.598068
0.600194
0.593719
0.584916
0.654113
0.651059
0.648405
0.64612
0.644166
0.642522
0.654023
0.651005
0.648376
0.646097
0.644135
0.642482
0.653352
0.650731
0.64836
0.646213
0.644307
0.642671
0.642118
0.642764
0.643131
0.643338
0.643518
0.643843
0.644272
0.644257
0.644286
0.64444
0.644764
0.645025
0.644629
0.644415
0.644468
0.64479
0.64492
0.644041
0.643482
0.643373
0.643695
0.6438
0.642552
0.64166
0.641405
0.641727
0.642312
0.640726
0.639381
0.638843
0.639009
0.640472
0.638532
0.63613
0.634924
0.634682
0.637915
0.63447
0.629064
0.626095
0.624862
0.631896
0.620291
0.602008
0.589129
0.585185
0.61678
0.554534
0.503635
0.474534
0.461526
0.589936
0.445985
0.397009
0.384104
0.377109
0.55225
0.384659
0.362007
0.362821
0.359084
0.579866
0.596861
0.603622
0.606137
0.606013
0.603308
0.597608
0.584298
0.575089
0.722773
0.81769
0.875576
0.87546
0.562518
0.760108
0.777239
0.832797
0.832932
0.56477
0.714271
0.662945
0.71285
0.712919
0.571664
0.730612
0.677039
0.728292
0.72733
0.550744
0.674934
0.60692
0.641955
0.640319
0.571447
0.697384
0.675632
0.714421
0.706863
0.545193
0.559222
0.56668
0.589222
0.57898
0.53914
0.579324
0.584978
0.600984
0.610515
0.598808
0.570495
0.590704
0.592256
0.60198
0.604652
0.59304
0.578312
0.595865
0.596568
0.602268
0.603557
0.596142
0.587402
0.652406
0.649471
0.646943
0.644778
0.642936
0.641394
0.652242
0.649357
0.646859
0.644694
0.642833
0.641271
0.651502
0.649109
0.646933
0.644937
0.64315
0.641612
0.641697
0.642369
0.642789
0.64309
0.643496
0.643978
0.644164
0.643918
0.643872
0.64393
0.644197
0.644667
0.644305
0.643814
0.643567
0.643693
0.644183
0.643836
0.642675
0.641925
0.641811
0.642303
0.642178
0.640362
0.639059
0.638709
0.639178
0.639854
0.637222
0.635006
0.634119
0.634464
0.636325
0.632072
0.627884
0.62599
0.626087
0.630382
0.621705
0.612211
0.607779
0.60739
0.618692
0.591531
0.562889
0.545673
0.541783
0.596827
0.520955
0.464169
0.435452
0.423062
0.564757
0.420883
0.369611
0.356805
0.350162
0.52789
0.35701
0.334626
0.335603
0.332419
0.570895
0.592711
0.601555
0.605749
0.607368
0.606873
0.604447
0.596291
0.607824
0.687938
0.818314
0.879674
0.879443
0.590275
0.72611
0.774405
0.825446
0.825637
0.589308
0.693898
0.680436
0.721183
0.721679
0.593749
0.709041
0.689747
0.731803
0.7316
0.565866
0.65873
0.623335
0.652855
0.652215
0.588217
0.669126
0.662364
0.693102
0.686842
0.564245
0.583931
0.581206
0.601979
0.594675
0.586788
0.594453
0.608631
0.61675
0.602323
0.576852
0.595343
0.598773
0.607446
0.609514
0.597247
0.58374
0.598846
0.600857
0.606019
0.606494
0.598845
0.591608
0.650376
0.647532
0.645116
0.643064
0.64133
0.639892
0.650118
0.647363
0.644998
0.642951
0.641195
0.639731
0.649314
0.647126
0.645134
0.643282
0.641614
0.64018
0.64113
0.641634
0.641959
0.642246
0.642731
0.643444
0.643654
0.64321
0.642997
0.642965
0.643248
0.643858
0.644261
0.643231
0.642426
0.641957
0.642019
0.642637
0.642308
0.640549
0.639317
0.63898
0.639581
0.639842
0.63689
0.634759
0.633928
0.634426
0.636048
0.631286
0.627219
0.625644
0.626233
0.629667
0.62097
0.613494
0.610482
0.61152
0.618774
0.600461
0.583289
0.575662
0.577653
0.601362
0.560202
0.522555
0.501633
0.496552
0.575631
0.487407
0.425949
0.397361
0.385881
0.542622
0.394542
0.34134
0.328267
0.322202
0.509247
0.329058
0.306536
0.307448
0.304936
0.568087
0.592642
0.602892
0.608465
0.611579
0.61277
0.612267
0.606923
0.629968
0.656278
0.776952
0.832928
0.832662
0.61233
0.697492
0.743667
0.782557
0.782812
0.611639
0.676566
0.676081
0.702962
0.703738
0.614419
0.68906
0.683775
0.712469
0.712896
0.580388
0.645885
0.627989
0.648922
0.649212
0.598371
0.650343
0.651653
0.674574
0.670906
0.576574
0.598105
0.594427
0.614049
0.609485
0.591372
0.601565
0.610216
0.615648
0.602915
0.597017
0.601554
0.608849
0.610255
0.598926
0.587254
0.599108
0.602376
0.606786
0.607034
0.600326
0.594741
0.648049
0.645272
0.642959
0.641011
0.639383
0.638051
0.647651
0.645017
0.642786
0.64086
0.639216
0.637856
0.64675
0.644765
0.642962
0.641264
0.639724
0.638404
0.640438
0.64062
0.640719
0.640879
0.641357
0.642201
0.642965
0.642181
0.641658
0.641401
0.6416
0.642281
0.643403
0.641818
0.640447
0.639534
0.639366
0.640006
0.643393
0.640375
0.637565
0.63542
0.634638
0.635137
0.636669
0.631861
0.62807
0.626298
0.626905
0.630553
0.622117
0.615086
0.612404
0.613666
0.62062
0.605378
0.592199
0.586897
0.589941
0.605585
0.577247
0.551942
0.539637
0.540899
0.584291
0.52975
0.483337
0.458605
0.452811
0.556713
0.456194
0.389937
0.36081
0.350218
0.526558
0.368625
0.312941
0.299048
0.293525
0.500435
0.301729
0.277652
0.278182
0.276273
0.572945
0.598166
0.608862
0.615133
0.619034
0.620819
0.62102
0.616921
0.640138
0.62175
0.714536
0.75721
0.757018
0.624153
0.673934
0.702891
0.725679
0.726053
0.623252
0.660655
0.663115
0.676798
0.677734
0.626125
0.671324
0.671794
0.68825
0.689123
0.590053
0.634599
0.628042
0.641211
0.642107
0.602656
0.636158
0.641786
0.658312
0.656847
0.5841
0.604214
0.602194
0.619151
0.615254
0.593792
0.605075
0.609031
0.613014
0.607007
0.59703
0.60232
0.608321
0.609308
0.599876
0.597883
0.602167
0.605922
0.606221
0.601333
0.59765
0.645463
0.642736
0.640511
0.638657
0.63713
0.635903
0.64489
0.642368
0.640267
0.638461
0.636927
0.635675
0.643861
0.642076
0.640466
0.638924
0.637516
0.636315
0.639828
0.639523
0.639227
0.639117
0.63947
0.640343
0.64229
0.64098
0.639948
0.63929
0.639259
0.639911
0.642477
0.640138
0.637946
0.636276
0.635638
0.636131
0.642046
0.637892
0.633607
0.630089
0.628326
0.628606
0.6395
0.632762
0.625311
0.618645
0.615579
0.616277
0.624368
0.611285
0.599872
0.594586
0.596623
0.611345
0.589011
0.569342
0.560126
0.56251
0.593336
0.554623
0.520439
0.503019
0.503275
0.569953
0.502298
0.446718
0.417741
0.411092
0.542511
0.429039
0.356636
0.325992
0.315955
0.516631
0.345552
0.284946
0.269632
0.264476
0.502906
0.275027
0.248519
0.248601
0.247174
0.58028
0.607629
0.618066
0.623872
0.627216
0.628575
0.62804
0.624638
0.641174
0.586539
0.645063
0.671179
0.67118
0.629196
0.654907
0.66711
0.672111
0.672617
0.626951
0.646303
0.648689
0.651711
0.652742
0.629341
0.656702
0.659646
0.666589
0.667822
0.59552
0.625455
0.626852
0.634113
0.635502
0.602953
0.625217
0.633565
0.645521
0.645977
0.58763
0.605399
0.605265
0.6189
0.616545
0.59382
0.605397
0.608187
0.612253
0.610332
0.595216
0.601629
0.606606
0.607345
0.600477
0.595087
0.600389
0.603843
0.604426
0.601486
0.642624
0.639922
0.637767
0.636
0.634568
0.633446
0.641833
0.639413
0.637436
0.635748
0.634322
0.63318
0.640639
0.639052
0.637639
0.636258
0.634987
0.63391
0.639019
0.638144
0.637359
0.636853
0.636963
0.637785
0.64125
0.639256
0.637614
0.636448
0.636054
0.636524
0.641027
0.637908
0.634727
0.631978
0.630545
0.630724
0.640062
0.634762
0.628831
0.623298
0.619986
0.620056
0.636865
0.628237
0.617774
0.608043
0.602546
0.602953
0.632011
0.617861
0.60011
0.58377
0.575134
0.57614
0.602879
0.573346
0.546333
0.532255
0.533597
0.583164
0.534271
0.490505
0.467092
0.465672
0.559168
0.478857
0.413307
0.379307
0.371462
0.533441
0.406368
0.325949
0.292647
0.282714
0.513015
0.324992
0.257278
0.239996
0.235003
0.511906
0.248649
0.21891
0.218617
0.217569
0.589461
0.61817
0.627167
0.631351
0.633044
0.63301
0.631433
0.629096
0.636435
0.556826
0.582001
0.588047
0.588315
0.629248
0.638446
0.64548
0.639174
0.639728
0.624984
0.632619
0.634815
0.63076
0.63186
0.627057
0.644056
0.648331
0.648726
0.650258
0.597074
0.617244
0.624099
0.627296
0.629128
0.600262
0.616115
0.62631
0.635396
0.637202
0.588044
0.603579
0.605326
0.616385
0.615733
0.592017
0.603607
0.606982
0.611552
0.611276
0.591993
0.599471
0.603826
0.604693
0.601489
0.591216
0.597377
0.600985
0.602338
0.601616
0.639532
0.636829
0.634728
0.633036
0.631693
0.630672
0.638474
0.636147
0.634289
0.632714
0.631395
0.630363
0.637074
0.635687
0.634476
0.633261
0.63213
0.631182
0.637457
0.635918
0.634703
0.633818
0.633626
0.634409
0.639319
0.636677
0.634371
0.632562
0.631661
0.631945
0.638576
0.634737
0.630585
0.626575
0.623941
0.623832
0.637068
0.630717
0.623059
0.615454
0.61051
0.609778
0.633317
0.622987
0.609754
0.596703
0.588547
0.587743
0.627985
0.611287
0.589147
0.567536
0.5548
0.554471
0.621064
0.595123
0.558899
0.524147
0.504332
0.503822
0.574719
0.516469
0.462717
0.432513
0.428796
0.551151
0.459201
0.38294
0.343075
0.333632
0.527987
0.387484
0.297314
0.260288
0.250024
0.51303
0.306258
0.229586
0.2099
0.204903
0.520885
0.222642
0.188504
0.187979
0.187255
0.597663
0.625856
0.632559
0.634731
0.634695
0.633365
0.630854
0.62978
0.629063
0.535872
0.542042
0.530655
0.531147
0.625592
0.624968
0.634958
0.627714
0.628251
0.618943
0.619853
0.622844
0.614985
0.616189
0.621136
0.632759
0.638794
0.635587
0.63741
0.595705
0.609432
0.620273
0.621125
0.623401
0.595491
0.608089
0.619716
0.627315
0.630016
0.586106
0.599981
0.603707
0.613014
0.613902
0.588773
0.600463
0.605179
0.610288
0.610829
0.587745
0.596239
0.600199
0.602076
0.601919
0.586626
0.59378
0.597803
0.600292
0.601859
0.636174
0.633444
0.631378
0.62975
0.628488
0.627562
0.634792
0.632549
0.630806
0.629336
0.628124
0.627203
0.633143
0.631957
0.630958
0.629914
0.628927
0.628111
0.634545
0.632357
0.630704
0.629567
0.629276
0.629988
0.635982
0.632766
0.629882
0.627369
0.625923
0.626176
0.63467
0.630218
0.625124
0.619987
0.616429
0.615628
0.632605
0.625362
0.616244
0.606838
0.600061
0.598259
0.628335
0.616695
0.601188
0.584906
0.573749
0.571507
0.622623
0.604173
0.578216
0.551372
0.534074
0.531825
0.615685
0.58732
0.545288
0.502873
0.476779
0.473774
0.608521
0.566746
0.500492
0.436831
0.399296
0.392822
0.544121
0.442113
0.354881
0.308509
0.297153
0.523638
0.370706
0.269811
0.228317
0.217424
0.513325
0.287596
0.201232
0.178989
0.173929
0.527216
0.194951
0.156834
0.156339
0.155955
0.602869
0.628252
0.633225
0.633785
0.632335
0.629975
0.626647
0.626753
0.62077
0.52274
0.526228
0.508074
0.508747
0.618612
0.61294
0.626743
0.621706
0.6223
0.610163
0.608202
0.613508
0.604292
0.605691
0.61273
0.622368
0.63091
0.626348
0.628533
0.591986
0.601946
0.615981
0.615882
0.618658
0.589281
0.600832
0.613857
0.620933
0.624362
0.582407
0.595494
0.601344
0.609682
0.611872
0.584456
0.596593
0.60277
0.608217
0.609816
0.582845
0.592415
0.596906
0.600346
0.60213
0.581806
0.590119
0.594935
0.59885
0.602176
0.63253
0.629743
0.62769
0.62611
0.624917
0.624079
0.630756
0.628586
0.62695
0.625575
0.624468
0.623655
0.628811
0.627827
0.627047
0.626179
0.625339
0.624657
0.629782
0.627011
0.624989
0.623804
0.623553
0.62422
0.630748
0.627054
0.623677
0.620793
0.619071
0.618965
0.628814
0.623827
0.618113
0.612313
0.60775
0.606145
0.626125
0.618276
0.608247
0.597175
0.588552
0.585549
0.621319
0.608982
0.591605
0.572338
0.558115
0.554167
0.615265
0.5957
0.566631
0.534929
0.512949
0.50842
0.608299
0.578319
0.531579
0.482023
0.449504
0.443655
0.601392
0.557759
0.485049
0.412078
0.367064
0.357618
0.595931
0.536099
0.425825
0.328023
0.274906
0.261538
0.517869
0.353933
0.242334
0.19612
0.184526
0.510987
0.267187
0.171541
0.146936
0.141918
0.528681
0.164739
0.123619
0.123431
0.12346
0.603318
0.625785
0.629576
0.628993
0.626487
0.62337
0.619424
0.620404
0.611475
0.513186
0.521287
0.502439
0.503378
0.60886
0.600315
0.616702
0.613759
0.614589
0.599721
0.597421
0.606378
0.59776
0.599478
0.60267
0.612441
0.623911
0.619399
0.622058
0.585931
0.594847
0.611648
0.611665
0.615007
0.582246
0.594379
0.608966
0.616154
0.620258
0.577547
0.590901
0.599064
0.607237
0.610363
0.579522
0.592576
0.600219
0.606345
0.608981
0.577739
0.588748
0.594653
0.599473
0.602575
0.577133
0.586847
0.592857
0.59837
0.602911
0.628584
0.625711
0.62365
0.622102
0.620962
0.620199
0.626335
0.624232
0.622699
0.621423
0.620413
0.619701
0.624047
0.623268
0.622716
0.622031
0.621339
0.62079
0.622719
0.619396
0.617275
0.616236
0.61601
0.616735
0.62317
0.619019
0.615524
0.612645
0.610521
0.610078
0.620495
0.615215
0.609384
0.602932
0.597459
0.595098
0.617128
0.609111
0.598392
0.585943
0.575615
0.571405
0.611769
0.599047
0.580285
0.558457
0.541331
0.535622
0.605357
0.585025
0.55355
0.517589
0.491126
0.484239
0.598114
0.567096
0.516693
0.46082
0.422126
0.413407
0.591237
0.546475
0.468701
0.387418
0.335233
0.322938
0.586152
0.525503
0.4085
0.301103
0.241516
0.226352
0.584839
0.508862
0.335168
0.213769
0.163141
0.151096
0.504304
0.243518
0.139921
0.113466
0.108767
0.524455
0.131517
0.0887208
0.0890969
0.0896371
0.598831
0.619286
0.622343
0.621032
0.617812
0.614216
0.609919
0.611463
0.601354
0.5046
0.519193
0.502286
0.503574
0.597188
0.585993
0.602859
0.600651
0.601929
0.588689
0.587282
0.600322
0.593498
0.595643
0.592058
0.602866
0.617151
0.613397
0.616617
0.578776
0.58859
0.607773
0.608604
0.612522
0.57608
0.589255
0.605511
0.613134
0.617816
0.57212
0.587509
0.598039
0.606291
0.610063
0.574576
0.589418
0.598819
0.605662
0.60913
0.573278
0.586154
0.593679
0.599842
0.603875
0.57335
0.584677
0.592243
0.59924
0.604606
0.6243
0.621295
0.619183
0.617638
0.616531
0.615828
0.621476
0.619412
0.617961
0.616767
0.615844
0.615228
0.618794
0.618204
0.617874
0.61737
0.616825
0.61641
0.61287
0.609149
0.607223
0.606288
0.606231
0.607139
0.612734
0.608391
0.605144
0.602168
0.599856
0.5992
0.609296
0.604127
0.598196
0.591309
0.585142
0.582145
0.605259
0.597262
0.586119
0.572613
0.560831
0.555532
0.599332
0.586367
0.566615
0.54269
0.522995
0.515668
0.5923
0.571507
0.538221
0.498686
0.468188
0.45914
0.584655
0.552929
0.499676
0.438429
0.394154
0.382881
0.577648
0.532054
0.450213
0.361798
0.303177
0.288535
0.572756
0.511404
0.388635
0.27295
0.207668
0.191317
0.571975
0.495732
0.312901
0.183182
0.128953
0.117113
0.577022
0.492735
0.215613
0.105981
0.0784141
0.0744877
0.514821
0.0951623
0.052166
0.0533088
0.0544616
0.590062
0.609555
0.612319
0.610684
0.607116
0.603343
0.599001
0.600881
0.590701
0.495262
0.515766
0.501528
0.5033
0.584321
0.56934
0.583584
0.580397
0.582389
0.57805
0.578362
0.596131
0.591771
0.594384
0.581925
0.593909
0.610549
0.607828
0.611635
0.572214
0.583888
0.605024
0.607029
0.611464
0.571624
0.586154
0.603997
0.61218
0.617295
0.568657
0.586277
0.599001
0.607387
0.611619
0.571642
0.588392
0.59949
0.607039
0.611073
0.570617
0.585374
0.594731
0.602147
0.606794
0.571371
0.584483
0.593867
0.602105
0.607972
0.619713
0.616547
0.614356
0.612782
0.61167
0.610989
0.616189
0.614156
0.61278
0.611662
0.610809
0.610265
0.613056
0.612654
0.612547
0.612222
0.611816
0.61152
0.60004
0.596275
0.594362
0.593657
0.593903
0.595102
0.599275
0.5951
0.591898
0.589016
0.586706
0.585964
0.595053
0.590057
0.584151
0.577057
0.570404
0.566936
0.590281
0.582346
0.570997
0.556736
0.5438
0.537637
0.583542
0.570534
0.550111
0.524539
0.502709
0.494084
0.575877
0.554774
0.520089
0.477636
0.443722
0.432959
0.567755
0.535421
0.479832
0.414128
0.365123
0.351949
0.560529
0.51408
0.428701
0.334335
0.270354
0.254268
0.555779
0.49342
0.365204
0.242644
0.172861
0.156407
0.555546
0.478273
0.286207
0.149935
0.093266
0.0826002
0.561496
0.476482
0.183026
0.0695774
0.0417855
0.0391333
0.573643
0.500576
0.0558688
0.0141157
0.016143
0.0179962
0.577906
0.597407
0.600339
0.598796
0.595268
0.591639
0.587555
0.589709
0.579951
0.484815
0.510009