/*--------------------------------*- C++ -*----------------------------------*\
| =========                 |                                                 |
| \\      /  F ield         | OpenFOAM: The Open Source CFD Toolbox           |
|  \\    /   O peration     | Version:  2.3.1                                 |
|   \\  /    A nd           | Web:      www.OpenFOAM.org                      |
|    \\/     M anipulation  |                                                 |
\*---------------------------------------------------------------------------*/
FoamFile
{
    version     2.0;
    format      ascii;
    class       surfaceScalarField;
    location    "600";
    object      phi;
}
// * * * * * * * * * * * * * * * * * * * * * * * * * * * * * * * * * * * * * //

dimensions      [0 3 -1 0 0 0 0];

internalField   nonuniform List<scalar> 
18288
(
-0.00181872
-0.00116225
0.00102915
-0.0016232
-0.0012424
0.00104688
-0.00138664
-0.00129443
0.00105788
-0.00113029
-0.00132305
0.0010667
-0.000859363
-0.00134307
0.00107214
-0.00135604
0.00107606
-0.00263233
0.000600839
-0.00226451
-0.00218773
0.000577502
-0.00188307
-0.00223779
0.000561915
-0.00150623
-0.00225772
0.000557831
-0.00113229
-0.00226946
0.000552454
-0.00227561
0.000547973
-0.00228489
-0.00221619
-0.000401766
-0.00186921
-0.00223671
-0.000416756
-0.00147992
-0.00223654
-0.00041047
-0.00110496
-0.00223317
-0.000411263
-0.00222861
-0.000412719
-0.00215395
-0.00101122
-0.00165462
-0.00174049
-0.00100611
-0.00164407
-0.00136771
-0.000999829
-0.00160949
-0.00101369
-0.0009916
-0.00159559
-0.000982907
-0.00158777
-0.00213241
9.72261e-05
-0.00152914
-0.00173836
8.78205e-05
-0.00148798
-0.00137505
8.44321e-05
-0.00144757
-0.00102443
8.47144e-05
-0.00142693
8.62117e-05
-0.00141023
-0.00210766
0.0012194
-0.00156728
-0.00170015
0.00122188
-0.00154156
-0.00133244
0.00122998
-0.00151326
-0.000984461
0.00123761
-0.00150088
0.0012445
-0.00149123
-0.00209899
0.0022454
-0.00147936
-0.00168973
0.00226978
-0.00145717
-0.00132266
0.00229399
-0.00143108
-0.000978198
0.00231237
-0.00141922
0.00232643
-0.00141057
-0.00206435
0.00322145
-0.00143065
-0.0016582
0.00327268
-0.00140905
-0.00129644
0.00331564
-0.00138341
-0.00095916
0.00334648
-0.00137139
0.00336862
-0.00136296
-0.00200215
0.00415575
-0.00137884
-0.00160763
0.00423381
-0.00135565
-0.00125728
0.004295
-0.00132971
-0.000931399
0.00433832
-0.00131773
0.00436864
-0.00130967
-0.00191561
0.00502759
-0.00129546
-0.00154071
0.00512922
-0.00127031
-0.00120733
0.00520619
-0.00124457
-0.000896694
0.00526092
-0.00123323
0.00529871
-0.00122574
-0.0018042
0.00582035
-0.00118644
-0.001456
0.00593844
-0.00115744
-0.00114494
0.00602574
-0.0011306
-0.000853634
0.00608883
-0.00111921
0.00613195
-0.00111162
-0.00168554
0.00632434
-0.000863853
-0.00136619
0.00645765
-0.000838549
-0.001079
0.00655499
-0.000816444
-0.00080834
0.00662637
-0.000808197
0.0066744
-0.000802456
-0.00154886
0.00652218
-0.00051902
-0.0012626
0.00666298
-0.000491589
-0.00100325
0.00676608
-0.000470442
-0.00075702
0.00684324
-0.000463104
0.00689484
-0.00045812
-0.00139798
0.00645893
-0.000217828
-0.0011465
0.00660051
-0.000189012
-0.000917523
0.00670513
-0.00016802
-0.000698686
0.00678474
-0.000160335
0.00683788
-0.000155649
-0.00123877
0.00621874
-8.49921e-07
-0.00102264
0.00635547
2.89116e-05
-0.000825147
0.00645729
5.03432e-05
-0.000635376
0.00653537
5.95968e-05
0.00658729
6.50662e-05
-0.00108297
0.00588209
0.000134
-0.000900734
0.00600903
0.000164206
-0.000733703
0.00610399
0.000186274
-0.000572715
0.00617692
0.000197461
0.00622495
0.000204261
-0.000937596
0.00550705
0.000206745
-0.000786431
0.00562195
0.000235913
-0.000647968
0.00570794
0.000257587
-0.000514485
0.00577351
0.000269928
0.00581585
0.000277857
-0.000805536
0.00513482
0.000234663
-0.000682663
0.00523742
0.000261656
-0.000570775
0.00531388
0.000282168
-0.000463232
0.00537117
0.000294803
0.00540682
0.000303507
-0.000687273
0.00479136
0.000233696
-0.000590408
0.00488307
0.00025748
-0.000503397
0.00495078
0.000276089
-0.000420429
0.00499996
0.000288243
0.00502862
0.000297383
-0.000581406
0.00449109
0.000216066
-0.000508973
0.00457462
0.000236027
-0.000445802
0.00463537
0.000252239
-0.000386666
0.00467749
0.000263329
0.00469942
0.000272668
-0.000484976
0.00423998
0.000191132
-0.000436344
0.00431899
0.000206992
-0.000396911
0.00437542
0.000220522
-0.000361811
0.00441222
0.000230176
0.00442806
0.000239586
-0.00039383
0.0040379
0.000166036
-0.000369458
0.00411682
0.000177799
-0.000354812
0.00417214
0.000188631
-0.000345184
0.00420582
0.000196772
0.00421653
0.000206208
-0.00030288
0.0038801
0.000146354
-0.000304481
0.00396394
0.000154481
-0.000317007
0.00402184
0.000162824
-0.000335722
0.00405492
0.000169611
0.00406172
0.000179103
-0.000206329
0.00375817
0.000136655
-0.00023695
0.00385229
0.000142276
-0.000280548
0.0039167
0.00014874
-0.000332079
0.00395189
0.00015456
0.00395632
0.00016417
-9.77138e-05
0.0036603
0.000140993
-0.000161888
0.00377027
0.000146192
-0.000242134
0.00384495
0.000151999
-0.000332665
0.00388482
0.000157599
0.00388898
0.000167371
2.98756e-05
0.00357114
0.000163375
-7.39152e-05
0.00370185
0.00017221
-0.000198233
0.00378971
0.000179555
-0.000335548
0.00383601
0.000186131
0.00384314
0.000196096
0.000183118
0.00347094
0.000207748
3.21641e-05
0.00362612
0.000226682
-0.00014546
0.00372783
0.000239509
-0.000338394
0.00378021
0.000248731
-0.000549915
0.0037958
0.000258856
0.0037501
0.000368548
0.00333326
0.000280615
0.000161436
0.00351243
0.000320798
-7.99654e-05
0.00362295
0.000346281
-0.000337712
0.00367617
0.000361785
-0.000623957
0.00370992
0.000372125
0.00366966
0.000367348
0.000588123
0.00312806
0.000385078
0.000314561
0.00332517
0.000460822
-1.87566e-06
0.00343212
0.000507261
-0.000329133
0.00346955
0.000533877
-0.000703873
0.00354006
0.000544607
0.00352199
0.000527945
0.000847256
0.00280527
0.000539065
0.000489205
0.00299719
0.000686036
8.76442e-05
0.0030629
0.000770788
-0.000298748
0.00303783
0.000818113
-0.000780794
0.00318955
0.00083255
0.0032291
0.000795646
0.00112312
0.00234012
0.000719191
0.000659976
0.00249559
0.000964741
0.000174188
0.00245501
0.00109368
-0.000234012
0.00228294
0.00116309
-0.000834451
0.00260424
0.00118575
0.00276261
0.00112153
0.00142541
0.00164919
0.000977395
0.000797281
0.00166716
0.00145656
0.000220199
0.0013314
0.0017007
-5.11301e-05
0.000718595
0.00183568
-0.000817932
0.00152456
0.00184648
0.00193514
0.00171846
0.00166869
0.000807423
0.00116276
0.000947442
0.000585519
0.00180289
0.000413892
-0.000229992
0.00209494
0.000117276
-0.00110148
0.00211669
-0.000772172
0.00011988
0.00229413
0.000942555
0.00211394
0.0020356
-0.000221659
0.00125995
0.00139567
-0.000702452
0.0019279
0.000730978
-0.00164078
0.00207548
-0.000180746
-0.00225735
0.0020676
-0.00122112
-0.00121961
0.00237986
-0.00031032
0.00227547
0.00223692
-0.00120656
0.00121321
0.00153505
-0.00179617
0.00179559
0.000704278
-0.00252646
0.00171646
-0.000416176
-0.0029262
0.0017893
-0.00163242
-0.00220843
0.00220506
-0.00153397
0.00222219
0.0020243
-0.00185582
0.000959652
0.00130344
-0.00242466
0.00134935
0.000578758
-0.00299267
0.0011909
-0.000339045
-0.0032636
0.0012552
-0.00151794
-0.00279454
0.001765
-0.00229417
0.00181619
0.00171844
-0.00210641
0.000599573
0.00103407
-0.00258372
0.000843425
0.000473205
-0.00297907
0.000547264
-0.000190912
-0.00317205
0.000572573
-0.00126622
-0.0029061
0.00118687
-0.00255195
0.00132359
0.00142756
-0.00189532
0.00016692
0.000819221
-0.00219362
0.000218243
0.000391686
-0.00238069
-0.00017085
-7.40596e-05
-0.0025171
-0.000189204
-0.000989608
-0.00240587
0.000415316
-0.00217505
0.000633369
0.00129949
-0.00139553
-0.000134565
0.000754401
-0.00153142
-0.000117107
0.000379186
-0.00154241
-0.000463059
3.19857e-05
-0.00163573
-0.000534171
-0.00072271
-0.0016467
-4.4765e-06
-0.00150347
0.000270292
0.00118592
-0.000690038
-0.000395306
0.000729346
-0.000691587
-0.000383261
0.000409383
-0.000601158
-0.000621291
0.000123525
-0.000631206
-0.000718668
-0.000464394
-0.000693621
-0.000365158
-0.000627802
-9.79011e-05
0.000773049
-0.000472469
0.000487822
-0.00040636
0.000356855
-0.000470191
0.000316812
-0.000591164
3.05324e-05
-0.00040734
-0.000169681
-0.00247945
-0.00102075
0.00182739
-0.00218213
-0.00112156
0.00187112
-0.00184157
-0.0011853
0.00190262
-0.00148415
-0.00121834
0.00192762
-0.00111737
-0.00123938
0.00194474
-0.00125145
0.001957
-0.00297547
-0.00175244
0.00093949
-0.00254871
-0.00187418
0.000903361
-0.00211015
-0.00194621
0.000884258
-0.00167883
-0.00197722
0.000885399
-0.00125448
-0.00199545
0.000884183
-0.00200431
0.000882894
-0.00282657
-0.000865488
-0.00237068
-0.00181903
-0.000912806
-0.00193382
-0.00186681
-0.000933011
-0.00152388
-0.00187925
-0.000918387
-0.00113063
-0.00188492
-0.000915038
-0.00188452
-0.000913949
-0.00194452
-0.000656209
-0.00323646
-0.00156751
-0.000673838
-0.00321406
-0.00122481
-0.000677949
-0.00315349
-0.000902555
-0.000679941
-0.00312283
-0.000679123
-0.00310397
-0.00192176
0.00041314
-0.0029856
-0.00156504
0.000400392
-0.00291892
-0.00123182
0.000396803
-0.00285554
-0.000914285
0.000395815
-0.00282023
0.000396757
-0.00279465
-0.00193213
0.00140507
-0.00297412
-0.00155794
0.00140868
-0.00292404
-0.00121688
0.00141727
-0.00287478
-0.000897857
0.00142455
-0.00284865
0.00143087
-0.00283028
-0.00193713
0.00235961
-0.00285965
-0.00155745
0.00238833
-0.00281651
-0.00121441
0.00241498
-0.00277184
-0.000895664
0.00243431
-0.00274772
0.00244838
-0.00273119
-0.00191667
0.00329301
-0.00279141
-0.00153845
0.00335171
-0.00275064
-0.00119862
0.00339964
-0.00270789
-0.000884142
0.00343327
-0.00268483
0.00345669
-0.00266932
-0.00186889
0.00422567
-0.00272853
-0.00150129
0.0043148
-0.00268635
-0.00117107
0.00438383
-0.00264413
-0.000865324
0.00443193
-0.00262214
0.00446492
-0.00260763
-0.00179895
0.00516099
-0.00262675
-0.00144959
0.00527798
-0.00258284
-0.00113405
0.00536572
-0.00254201
-0.000840498
0.00542722
-0.00252207
0.00546914
-0.002509
-0.00170607
0.00611316
-0.00250524
-0.00138166
0.00625188
-0.00245575
-0.00108589
0.00635282
-0.00241347
-0.000808398
0.00642446
-0.00239394
0.00647294
-0.00238077
-0.00163169
0.00681983
-0.00191009
-0.00132865
0.00698243
-0.00187214
-0.00104958
0.00709845
-0.00184114
-0.000785099
0.00718106
-0.00182928
0.00723614
-0.00182047
-0.00155187
0.00728701
-0.00129559
-0.00127333
0.00746493
-0.00125262
-0.00101393
0.00759158
-0.00122297
-0.000765094
0.00768269
-0.00121357
0.00774311
-0.00120607
-0.00147426
0.00756669
-0.000777871
-0.00121878
0.00775089
-0.000730462
-0.000978694
0.00788223
-0.000698754
-0.000746088
0.00797796
-0.000688209
0.00804144
-0.000681427
-0.00139981
0.00771783
-0.000407531
-0.00116492
0.00789977
-0.00035487
-0.000942847
0.00802969
-0.000319184
-0.000726306
0.0081253
-0.000304293
0.0081886
-0.000295459
-0.00132625
0.00777735
-0.000159181
-0.00111051
0.00794962
-0.000101379
-0.000905838
0.00807274
-6.14528e-05
-0.000705466
0.00816399
-4.15962e-05
0.00822412
-2.96443e-05
-0.00125196
0.00777393
-4.12727e-06
-0.00105383
0.00793185
5.55636e-05
-0.000866331
0.008045
9.78276e-05
-0.000682691
0.00812913
0.000121152
0.00818399
0.000135869
-0.00117522
0.00772996
8.23255e-05
-0.000995294
0.00787369
0.000139884
-0.000825842
0.00797657
0.00018115
-0.000659766
0.00805258
0.00020527
0.00810106
0.000221695
-0.00109858
0.00766643
0.000120042
-0.000937413
0.00779762
0.000172382
-0.00078654
0.0078909
0.000210884
-0.000638649
0.00795869
0.00023425
0.00800009
0.000251931
-0.00102315
0.00759809
0.000127012
-0.00088134
0.00771954
0.000172299
-0.000749694
0.00780482
0.000206671
-0.000620756
0.00786506
0.000228016
0.00789907
0.000246724
-0.000948513
0.00753433
0.000118065
-0.000827011
0.00764987
0.000155165
-0.000715634
0.00772963
0.000184337
-0.000606887
0.00778365
0.000202843
0.00781022
0.000222556
-0.00087286
0.00747991
0.000105427
-0.000773183
0.00759407
0.000133916
-0.000683827
0.00767142
0.000157478
-0.000597339
0.00772098
0.000172953
0.00774029
0.000193766
-0.000793161
0.00743518
9.95324e-05
-0.00071765
0.00755296
0.000120088
-0.000653042
0.0076314
0.00013824
-0.00059198
0.00767853
0.000150998
0.00769097
0.000173103
-0.00070533
0.0073962
0.000109784
-0.000657298
0.00752268
0.000124517
-0.000621391
0.00760577
0.000138464
-0.000590286
0.00765261
0.000149374
0.00765886
0.000172985
-0.000604183
0.00735461
0.000145177
-0.000588141
0.0074945
0.000158334
-0.00058634
0.00758525
0.000170725
-0.000591362
0.00763368
0.000181545
0.00763499
0.000206741
-0.000483201
0.0072968
0.000215414
-0.000505231
0.00745374
0.000234996
-0.000544698
0.00755357
0.000250695
-0.000593769
0.00760461
0.000264275
0.00760331
0.000291029
-0.000334955
0.00720247
0.000331457
-0.000403364
0.00737778
0.000371057
-0.000493098
0.00748498
0.00039784
-0.000595451
0.00753744
0.000418259
0.00753812
0.000446479
-0.000148621
0.00704066
0.000509537
-0.000275106
0.00723047
0.00059459
-0.000427038
0.00733635
0.000646838
-0.00059281
0.00738376
0.000681234
-0.000789327
0.00739573
0.000711035
0.00733745
8.27353e-05
0.00677348
0.00075905
-0.000116845
0.00696479
0.000926084
-0.000344713
0.00704791
0.00102357
-0.000581109
0.00707259
0.00108144
-0.000868047
0.00711552
0.00111175
0.00708473
0.00108127
0.000379509
0.00633866
0.00111531
8.32861e-05
0.00649201
0.00145504
-0.000239414
0.006499
0.00164239
-0.000546929
0.00645438
0.00174384
-0.000947384
0.00657217
0.00177635
0.00661627
0.00169572
0.000715681
0.00570696
0.00152936
0.000298069
0.00576726
0.0021071
-0.000124276
0.0056072
0.00240782
-0.000475378
0.00540027
0.0025683
-0.00100377
0.00568669
0.00259963
0.0058904
0.00244587
0.00114852
0.00476677
0.00210848
0.000542313
0.00454596
0.00328407
8.94301e-06
0.00399591
0.00384535
-0.000304662
0.00341929
0.00413027
-0.00100375
0.00408178
0.00415047
0.00461063
0.00386493
0.0015202
0.00367576
0.00248813
0.000731243
0.00312033
0.00401748
0.000160339
0.00193223
0.00472953
-3.57129e-05
0.000708947
0.00502308
-0.000933499
0.00216179
0.00511191
0.00318328
0.00471506
0.00194799
0.00250195
0.00265353
0.00114272
0.00156022
0.00429328
0.000496931
-0.00030917
0.00496267
-0.00012815
-0.00171729
0.00511891
-0.00118469
0.000155149
0.00544304
0.00169203
0.00506093
0.00244257
0.00125982
0.00260934
0.00171504
-0.000121208
0.00420454
0.000681868
-0.00203992
0.00448038
-0.000799682
-0.00305595
0.00460951
-0.00203005
-0.00159791
0.00518849
-3.41974e-05
0.00503987
0.00278146
6.84396e-05
0.00228312
0.0019345
-0.00141617
0.00349127
0.000500243
-0.0028951
0.00348033
-0.00129929
-0.00366597
0.00366476
-0.00275194
-0.00264424
0.00426398
-0.0014926
0.00433865
0.00281963
-0.000752151
0.00167816
0.00182919
-0.001975
0.00239269
0.000268082
-0.00304978
0.00226305
-0.00156022
-0.00365002
0.00238493
-0.00304466
-0.00303747
0.00306454
-0.00221834
0.00318647
0.00256966
-0.000945737
0.000756016
0.00160597
-0.00175812
0.000965058
9.05319e-05
-0.00237407
0.000668886
-0.00167359
-0.00282155
0.000746452
-0.00308408
-0.00257057
0.00135889
-0.0020491
0.00152473
0.00238123
-0.000836126
0.000136029
0.00151301
-0.00128456
0.000277547
0.000155303
-0.00150729
2.78706e-05
-0.00148152
-0.00178993
7.10378e-05
-0.00286539
-0.00181445
0.000623273
-0.0015584
0.000815599
0.00221354
-0.000473374
-0.000430128
0.00150595
-0.000619847
-0.00034039
0.000418882
-0.000555496
-0.000486018
-0.000983008
-0.000651343
-0.000455369
-0.00228583
-0.000820868
-5.59209e-05
-0.000759128
0.00012609
0.00176736
-0.000690523
0.00126555
-0.000524393
0.00075105
-0.000511192
6.5757e-05
-0.000557214
-0.000921305
-0.000241147
-1.94612e-05
-0.00257394
-0.000475567
0.00210707
-0.00228682
-0.000617335
0.00220134
-0.00194274
-0.0007171
0.00227564
-0.00157127
-0.000774039
0.00233019
-0.00118477
-0.000810886
0.00236912
-0.000832473
0.00239665
-0.00298003
-0.000994631
0.00110703
-0.00257697
-0.00119263
0.00107559
-0.00214283
-0.00131855
0.00105157
-0.00170761
-0.00138271
0.00105886
-0.0012753
-0.00142501
0.001066
-0.00144865
0.00107185
-0.00266716
-0.00113005
-0.00115511
-0.00224849
-0.00128134
-0.00124276
-0.00184186
-0.00138427
-0.00127393
-0.00145484
-0.00142466
-0.00126345
-0.00107868
-0.00145296
-0.00126325
-0.00146608
-0.00126341
-0.00188347
-0.00458043
-0.00154115
-0.00033389
-0.00452622
-0.00124287
-0.000383531
-0.00451308
-0.000968954
-0.000403156
-0.00444891
-0.000711258
-0.000418699
-0.00441478
-0.000425957
-0.00439394
-0.00153428
0.000553709
-0.00418512
-0.00125278
0.000526795
-0.00411075
-0.000984598
0.000515021
-0.0040419
-0.000729318
0.000506461
-0.00400067
0.000501944
-0.00397204
-0.00157206
0.00136865
-0.00413257
-0.00126755
0.00136928
-0.00407102
-0.000987984
0.00137532
-0.00401465
-0.000727295
0.00137942
-0.0039823
0.00138283
-0.00396048
-0.00158546
0.00216622
-0.00400949
-0.00127469
0.0021982
-0.0039562
-0.000992501
0.00222633
-0.00390503
-0.000730795
0.0022455
-0.0038755
0.00225877
-0.00385592
-0.00156806
0.00295903
-0.00393512
-0.00125976
0.0030248
-0.00388553
-0.000980903
0.00307709
-0.00383751
-0.000722815
0.0031129
-0.00381032
0.00313741
-0.0037926
-0.00151859
0.00377618
-0.00388221
-0.00122319
0.00387488
-0.00383183
-0.000954764
0.00395007
-0.00378554
-0.000705445
0.00400202
-0.00376057
0.0040376
-0.00374456
-0.0014445
0.00463835
-0.00379993
-0.00117005
0.00476723
-0.00374963
-0.000917119
0.00486184
-0.0037067
-0.00068011
0.00492831
-0.00368537
0.00497385
-0.00367179
-0.00133661
0.00560502
-0.00374791
-0.00109186
0.00575975
-0.00369303
-0.00086126
0.00586765
-0.00364988
-0.000642177
0.00594508
-0.00362979
0.00599769
-0.00361639
-0.00126587
0.00620757
-0.00275628
-0.00104361
0.0063978
-0.00273245
-0.00082904
0.00652589
-0.00271395
-0.000620521
0.00661719
-0.00270992
0.00667835
-0.00270655
-0.00117003
0.00652418
-0.00181409
-0.000981104
0.00673449
-0.00177824
-0.000792236
0.00687585
-0.00176179
-0.00060278
0.00697745
-0.00176329
0.00704546
-0.0017605
-0.00107856
0.00666554
-0.00108384
-0.000918515
0.00688455
-0.00104057
-0.000754787
0.00703286
-0.00101949
-0.000585964
0.00714067
-0.00102025
0.00721354
-0.00102082
-0.000997239
0.00673826
-0.00061875
-0.000859546
0.00695814
-0.000566153
-0.000717137
0.00710813
-0.000536867
-0.000567531
0.00721721
-0.000530433
0.00729157
-0.000528888
-0.000927235
0.00679279
-0.000334142
-0.000807022
0.0070098
-0.000273251
-0.000682616
0.00715838
-0.000236108
-0.000550271
0.00726498
-0.000221713
0.00733826
-0.000215996
-0.000871465
0.00685371
-0.000170041
-0.000766765
0.00706619
-0.000105523
-0.000657414
0.00720949
-6.26382e-05
-0.000539294
0.00730973
-4.17211e-05
0.00737944
-3.10196e-05
-0.000829921
0.00692738
-8.19744e-05
-0.000737461
0.00713101
-1.74018e-05
-0.000639671
0.00726447
2.838e-05
-0.000533181
0.00735597
5.25361e-05
0.00742064
6.72894e-05
-0.000794282
0.00701019
-4.23581e-05
-0.000711822
0.00720228
1.865e-05
-0.000624919
0.00732502
6.34348e-05
-0.000529871
0.00740795
8.72238e-05
0.00746751
0.000104545
-0.000758699
0.00710016
-3.24108e-05
-0.000686973
0.00728164
2.12193e-05
-0.000612036
0.00739527
6.14881e-05
-0.000529301
0.00747053
8.27015e-05
0.00752528
0.000102716
-0.00072001
0.00719787
-3.76957e-05
-0.000661065
0.00737131
6.54856e-06
-0.00060001
0.00747872
3.9828e-05
-0.000531545
0.00754792
5.69859e-05
0.0075984
8.00477e-05
-0.000675287
0.00730521
-4.63828e-05
-0.000631909
0.00747385
-1.20019e-05
-0.00058757
0.00757865
1.32076e-05
-0.000536581
0.00764414
2.57537e-05
0.00769097
5.23469e-05
-0.000621521
0.00742417
-4.76821e-05
-0.000597432
0.00759302
-2.31733e-05
-0.000573543
0.00769868
-5.68188e-06
-0.000544401
0.00776313
2.86417e-06
0.00780688
3.37566e-05
-0.000555789
0.00755493
-3.0125e-05
-0.000555229
0.00773114
-1.41675e-05
-0.000556599
0.00784181
-3.29063e-06
-0.000554978
0.00790808
2.80384e-06
0.00794923
3.89764e-05
-0.000472804
0.00769324
1.96515e-05
-0.000501033
0.00788691
3.07961e-05
-0.000534352
0.00800873
3.71252e-05
-0.000568031
0.00808031
4.29906e-05
0.00811919
8.52257e-05
-0.00036322
0.00783087
0.00011623
-0.00042867
0.00805568
0.000131681
-0.000503663
0.00819617
0.000138244
-0.000582844
0.00827656
0.000147208
0.00831369
0.000196007
-0.000217914
0.00795385
0.000275706
-0.000331927
0.00822707
0.000313678
-0.000461262
0.00839312
0.000330228
-0.000598242
0.00848475
0.000347054
0.00852214
0.000402342
-2.0771e-05
0.00803532
0.000524573
-0.000199503
0.00837479
0.000625604
-0.000401163
0.00856909
0.00067253
-0.000610969
0.00866961
0.000706178
0.00871389
0.000767558
0.000239928
0.00803981
0.000876919
-2.53187e-05
0.00846356
0.00110256
-0.000320939
0.00867615
0.00121213
-0.000616562
0.00877054
0.00127613
-0.000970231
0.00883979
0.00133952
0.00877576
0.000615834
0.00787759
0.00140368
0.000220997
0.00837757
0.00193587
-0.000204807
0.00855313
0.00219122
-0.000599077
0.00859162
0.00231703
-0.00109436
0.0087302
0.00238122
0.00871609
0.00229298
0.00106208
0.00751277
0.00201536
0.000497805
0.00806696
0.00298199
-7.49661e-05
0.00810555
0.00342817
-0.00054524
0.0079765
0.00365369
-0.00120126
0.00828311
0.00370273
0.00842014
0.00348933
0.00180424
0.00662876
0.00299067
0.000909439
0.0067282
0.00551764
0.000110599
0.00625377
0.00649597
-0.000387288
0.0056922
0.00691246
-0.00127435
0.00636922
0.00695143
0.00689905
0.00652834
0.00233461
0.00552524
0.00357845
0.0011521
0.0050664
0.00686178
0.000241495
0.00378762
0.00810628
-9.13836e-05
0.00242889
0.00861927
-0.00121305
0.0039298
0.00867299
0.00508174
0.00807661
0.00276683
0.00432431
0.00384861
0.00146223
0.00330968
0.0073546
0.000522512
0.00103523
0.00865479
-5.71798e-06
-0.000912341
0.00898838
-0.00131863
0.00140705
0.00927869
0.00327722
0.00867291
0.00328287
0.00303753
0.0038144
0.00213384
0.00140656
0.00725668
0.000809701
-0.00136112
0.00820087
-0.000749318
-0.0031359
0.00839209
-0.00220813
-0.000946349
0.0090007
0.00128916
0.00863265
0.00374122
0.00174757
0.00340044
0.00262013
-0.000364746
0.00638367
0.000696472
-0.00279685
0.00683972
-0.00170494
-0.00420098
0.00713125
-0.0034143
-0.00263739
0.00766438
-0.000742026
0.00769304
0.00387632
0.000667684
0.00267007
0.00263806
-0.0014635
0.00472969
0.000369982
-0.00334449
0.00507878
-0.00221487
-0.00446421
0.00523301
-0.00408804
-0.00349843
0.00579875
-0.00213008
0.00588312
0.00338115
0.000312898
0.00132936
0.00219929
-0.0011593
0.00184273
1.5528e-05
-0.00239248
0.00190063
-0.00242872
-0.00327176
0.00199824
-0.00409289
-0.00278731
0.00231194
-0.00186884
0.00239917
0.00315171
0.000142906
0.000599981
0.0020652
-0.000741364
0.000946119
2.47872e-05
-0.00135508
0.00103089
-0.00228039
-0.00197215
0.00107661
-0.00386338
-0.00189006
0.00130901
-0.00137362
0.00141913
0.00287543
5.59951e-05
-4.82865e-05
0.00198364
-0.000292621
0.000102657
0.000292627
-0.000356645
0.000206561
-0.00179872
-0.000623091
0.000286917
-0.00331367
-0.000847657
0.000416631
-0.000681756
0.000486905
0.00234707
-0.000375331
0.00171896
-0.000188899
0.000874783
-2.36628e-05
-0.000342893
3.73719e-05
-0.00164123
0.000209535
0.000295098
-0.00245367
0.000234069
0.00171442
-0.00220674
0.00011714
0.00183727
-0.00189581
1.95066e-05
0.0019452
-0.00154693
-4.8487e-05
0.00202981
-0.00117354
-9.83066e-05
0.00209403
-0.000131396
0.00214103
-0.00291672
0.000128508
0.000931599
-0.00256223
-9.60966e-05
0.000934337
-0.00215733
-0.000268895
0.000935081
-0.00173385
-0.000374827
0.000961709
-0.00130121
-0.000452179
0.000987236
-0.000501304
0.00100732
-0.00254038
-0.000379587
-0.00101818
-0.0021804
-0.000608365
-0.00109047
-0.00181402
-0.000773531
-0.00113567
-0.00144722
-0.000844047
-0.00116104
-0.00107896
-0.000897991
-0.0011857
-0.000928577
-0.00120134
-0.00142751
9.65604e-05
-0.00540552
-0.00116366
-5.07348e-06
-0.00539337
-0.000944519
-8.87692e-05
-0.00541699
-0.000738353
-0.000125947
-0.00537318
-0.000541496
-0.000157173
-0.00535246
-0.000174819
-0.00534111
-0.00142181
-0.0052168
-0.00117836
0.000640679
-0.00507431
-0.000967246
0.000597507
-0.00500814
-0.000760869
0.000576156
-0.00495038
-0.000564402
0.00055922
-0.00491353
0.00054865
-0.00488932
-0.00122987
0.00124934
-0.00501581
-0.000993642
0.00124444
-0.00495418
-0.000774639
0.00124591
-0.0049034
-0.000570647
0.00124572
-0.00487279
0.00124579
-0.00485349
-0.00124754
0.00186974
-0.00490915
-0.00100503
0.0019
-0.00485427
-0.000783234
0.00192596
-0.00480688
-0.000577302
0.00194275
-0.00477846
0.0019542
-0.00476071
-0.00123213
0.00250879
-0.00484901
-0.000992979
0.00257306
-0.00479775
-0.000774394
0.00262353
-0.00475368
-0.000571345
0.00265743
-0.00472805
0.00268076
-0.0047124
-0.00118189
0.0032028
-0.00483358
-0.000957207
0.00329896
-0.00478242
-0.000749153
0.00337133
-0.00474138
-0.00055448
0.00342098
-0.0047188
0.00345548
-0.00470531
-0.00110645
0.00398471
-0.00481128
-0.000904431
0.00411084
-0.00476354
-0.000711437
0.00420001
-0.00472838
-0.000528421
0.00426323
-0.00471064
0.00430707
-0.00470051
-0.000975892
0.00501656
-0.00496802
-0.000810452
0.00517421
-0.00492183
-0.000642702
0.00527358
-0.0048912
-0.000480152
0.00534722
-0.00487633
0.00539735
-0.00486754
-0.000915642
0.00541385
-0.00329466
-0.000775321
0.00561898
-0.00331754
-0.000621013
0.0057396
-0.00333427
-0.000461695
0.00582726
-0.00334927
0.00588722
-0.00336332
-0.000762048
0.0054111
-0.00187646
-0.000681268
0.00562589
-0.00186594
-0.000569877
0.00574883
-0.00188242
-0.000441195
0.00584026
-0.00190497
0.0059033
-0.00191031
-0.000621071
0.00528702
-0.000959559
-0.000585504
0.00550158
-0.000951827
-0.000514148
0.00562181
-0.000963818
-0.000418866
0.00571181
-0.000987082
0.00577456
-0.00100408
-0.000499917
0.00519156
-0.000482627
-0.000498948
0.0053965
-0.000462037
-0.000459672
0.0055111
-0.00046543
-0.000392037
0.00559361
-0.000479867
0.00565106
-0.000494317
-0.000397831
0.00515147
-0.000225891
-0.000424813
0.00533612
-0.000185885
-0.000413659
0.00544012
-0.000176288
-0.000370354
0.00551149
-0.000182898
0.00556334
-0.000196635
-0.000318154
0.00517343
-0.000105085
-0.000365439
0.0053335
-5.56251e-05
-0.000376846
0.00542383
-3.49409e-05
-0.000353955
0.00548327
-3.63877e-05
0.00553175
-4.87574e-05
-0.000254463
0.00524924
-5.76553e-05
-0.000318146
0.00538561
-5.83066e-06
-0.000348993
0.00546256
2.05006e-05
-0.000344395
0.00551138
1.982e-05
0.00555871
1.01074e-05
-0.000200532
0.00536851
-4.92405e-05
-0.000279943
0.00548456
-8.83867e-07
-0.000329429
0.00555078
2.46958e-05
-0.000342247
0.00558921
2.22199e-05
0.00563562
1.67075e-05
-0.000150482
0.00552151
-5.95983e-05
-0.000246962
0.00562018
-1.79176e-05
-0.000315469
0.00567727
3.50546e-06
-0.000346009
0.00570563
-3.18785e-06
0.00575264
-3.8084e-06
-9.76324e-05
0.0057009
-7.69219e-05
-0.000213584
0.00578698
-4.43021e-05
-0.000302708
0.00583488
-2.8651e-05
-0.000354233
0.00585482
-4.067e-05
0.00590503
-3.59171e-05
-3.65899e-05
0.00590318
-9.30135e-05
-0.000175268
0.00598458
-7.09237e-05
-0.000288992
0.00602549
-6.36803e-05
-0.000367569
0.00604034
-8.11961e-05
0.00609611
-6.999e-05
3.70392e-05
0.00612819
-0.000100365
-0.00012811
0.00621556
-8.90076e-05
-0.000272784
0.00625661
-9.21315e-05
-0.000386475
0.00627178
-0.000114879
0.00633461
-9.59408e-05
0.000128332
0.00637841
-9.06546e-05
-6.82873e-05
0.00648677
-8.87513e-05
-0.000252567
0.00654027
-0.000102664
-0.000411257
0.00656338
-0.000130109
0.00663345
-0.000101964
0.000240562
0.00665786
-5.24712e-05
6.22166e-06
0.00680808
-5.61799e-05
-0.000227767
0.00689113
-7.975e-05
-0.000442721
0.006932
-0.000110679
0.00700715
-7.10092e-05
0.000377977
0.00696667
3.32246e-05
9.84006e-05
0.007186
3.33382e-05
-0.000196506
0.00731848
5.79947e-06
-0.000480139
0.00738965
-2.68046e-05
0.00746625
2.61431e-05
0.000559514
0.00729993
0.000185302
0.000223469
0.0076264
0.000209325
-0.000149333
0.00783059
0.000190922
-0.000519768
0.00794474
0.000162398
0.0080205
0.000226882
0.000807718
0.00763967
0.000436879
0.000397444
0.00812709
0.000535188
-7.73919e-05
0.00842509
0.000552864
-0.000557605
0.00859149
0.00053964
0.00866889
0.000613738
0.00113363
0.0079582
0.000806925
0.000624041
0.0086789
0.00106033
2.05137e-05
0.00908699
0.00115376
-0.000591403
0.00930352
0.00117602
0.00939275
0.00125343
0.00164233
0.00813131
0.00141967
0.000959705
0.0091502
0.0021472
0.00016875
0.00962995
0.00243922
-0.000600199
0.00985438
0.00253512
-0.00143637
0.00999567
0.00261447
0.009802
0.00221128
0.00813553
0.00212834
0.00130804
0.00952465
0.00351078
0.00032407
0.00999584
0.00404625
-0.000580481
0.0101226
0.00429002
-0.00162959
0.0104005
0.00434701
0.0102662
0.00411585
0.00343731
0.00733613
0.00352606
0.00195184
0.00800788
0.00851988
0.000579801
0.00788196
0.00998189
-0.000453919
0.00752369
0.0105451
-0.00183322
0.00815249
0.0105787
0.00843909
0.0100048
0.00404008
0.00635141
0.00422793
0.00221258
0.00626599
0.0104312
0.000701148
0.00522594
0.0122737
-0.000200128
0.0039615
0.0130827
-0.00182093
0.00537237
0.0130739
0.00638618
0.0122047
0.00443365
0.00526027
0.00458424
0.00241776
0.0044653
0.0111712
0.000871339
0.00219884
0.0132283
6.25655e-06
-0.000149086
0.013964
-0.00183046
0.00240161
0.0140862
0.00434818
0.0131244
0.00488316
0.00404148
0.00458079
0.00300862
0.00246618
0.0111303
0.00113516
-0.000728829
0.013002
-0.000714821
-0.00333648
0.0134295
-0.00263861
-0.00059154
0.0139176
0.00207893
0.0131563
0.00524887
0.00274549
0.00412862
0.00360262
0.000331821
0.0101643
0.00111379
-0.00277983
0.0113795
-0.00199023
-0.00487328
0.0117721
-0.00410774
-0.00295702
0.0121474
-0.000503537
0.0119713
0.0053462
0.00150618
0.00335833
0.00373763
-0.00137865
0.00804873
0.00082774
-0.00388018
0.00908903
-0.0025878
-0.00554817
0.00932345
-0.00497262
-0.00438277
0.00960932
-0.00259564
0.00955422
0.00434433
0.0011259
0.00166905
0.00297839
-0.000828537
0.00265856
0.000403011
-0.00250402
0.00309984
-0.00263892
-0.003796
0.003288
-0.0047048
-0.00322647
0.00322152
-0.00203695
0.00313197
0.00390603
0.000850346
0.000972957
0.00272507
-0.000312148
0.00161069
0.000425291
-0.00121957
0.00204621
-0.00233505
-0.00213541
0.00217636
-0.00428564
-0.00204886
0.00208198
-0.00137877
0.00201456
0.00345334
0.000525971
0.000435209
0.00255137
1.98524e-05
0.000672628
0.000729333
-0.000202226
0.00101126
-0.00170541
-0.000603195
0.00118944
-0.00353941
-0.000870446
0.00107222
-0.000663896
0.000960613
0.00282109
0.000321469
0.00218231
0.000469731
0.00125847
0.000697954
-0.000203339
0.000895985
-0.00176379
0.000899539
0.000777283
-0.00224165
0.000721714
0.000859732
-0.00203081
0.000684813
0.000941619
-0.00175858
0.000652437
0.00102054
-0.00144501
0.000626874
0.00108936