/*--------------------------------*- C++ -*----------------------------------*\
| =========                 |                                                 |
| \\      /  F ield         | OpenFOAM: The Open Source CFD Toolbox           |
|  \\    /   O peration     | Version:  2.3.1                                 |
|   \\  /    A nd           | Web:      www.OpenFOAM.org                      |
|    \\/     M anipulation  |                                                 |
\*---------------------------------------------------------------------------*/
FoamFile
{
    version     2.0;
    format      ascii;
    class       volScalarField;
    location    "600";
    object      T;
}
// * * * * * * * * * * * * * * * * * * * * * * * * * * * * * * * * * * * * * //

dimensions      [0 0 0 1 0 0 0];

internalField   nonuniform List<scalar> 
6852
(
289.15
289.15
289.15
289.15
289.15
289.15
289.15
289.15
289.15
289.15
289.15
289.15
289.15
289.15
289.15
289.15
289.15
289.15
289.15
289.15
289.15
289.15
289.15
289.15
289.15
289.15
289.15
289.15
289.15
289.15
289.15
289.15
289.15
289.15
289.15
289.15
289.15
289.15
289.15
289.15
289.15
289.15
289.15
289.15
289.15
289.15
289.15
289.15
289.15
289.15
289.15
289.15
289.15
289.15
289.15
289.15
289.15
289.15
289.15
289.15
289.15
289.15
289.15
289.15
289.15
289.15
289.15
289.15
289.15
289.15
289.15
289.15
289.15
289.15
289.15
289.15
289.15
289.15
289.15
289.15
289.15
289.15
289.15
289.15
289.15
289.15
289.15
289.15
289.15
289.15
289.15
289.15
289.15
289.15
289.15
289.15
289.15
289.15
289.15
289.15
289.15
289.15
289.15
289.15
289.15
289.15
289.15
289.15
289.15
289.15
289.15
289.15
289.15
289.15
289.15
289.15
289.15
289.15
289.15
289.15
289.15
289.15
289.15
289.15
289.15
289.15
289.15
289.15
289.15
289.15
289.15
289.15
289.15
289.15
289.15
289.15
289.15
289.15
289.15
289.15
289.15
289.15
289.15
289.15
289.15
289.15
289.15
289.15
289.15
289.15
289.15
289.15
289.15
289.15
289.15
289.15
289.15
289.15
289.15
289.15
289.15
289.15
289.15
289.15
289.15
289.15
289.15
289.15
289.15
289.15
289.15
289.15
289.15
289.15
289.15
289.15
289.15
289.15
289.15
289.15
289.15
289.15
289.15
289.15
289.15
289.15
289.15
289.15
289.15
289.15
289.15
289.15
289.15
289.15
289.15
289.15
289.15
289.15
289.15
289.15
289.15
289.15
289.15
289.15
289.15
289.15
289.15
289.15
289.15
289.15
289.15
289.15
289.15
289.15
289.15
289.15
289.15
289.15
289.15
289.15
289.15
289.15
289.15
289.15
289.15
289.15
289.15
289.15
289.15
289.15
289.15
289.15
289.15
289.15
289.15
289.15
289.15
289.15
289.15
289.15
289.15
289.15
289.15
289.15
289.15
289.15
289.15
289.15
289.15
289.15
289.15
289.15
289.15
289.15
289.15
289.15
289.15
289.15
289.15
289.15
289.15
289.15
289.15
289.15
289.15
289.15
289.15
289.15
289.15
289.15
289.15
289.15
289.15
289.15
289.15
289.15
289.15
289.15
289.15
289.15
289.15
289.15
289.15
289.15
289.15
289.15
289.15
289.15
289.15
289.15
289.15
289.15
289.15
289.15
289.15
289.15
289.15
289.15
289.15
289.15
289.15
289.15
289.15
289.15
289.15
289.15
289.15
289.15
289.15
289.15
289.15
289.15
289.15
289.15
289.15
289.15
289.15
289.15
289.15
289.15
289.15
289.15
289.15
289.15
289.15
289.15
289.15
289.15
289.15
289.15
289.15
289.15
289.15
289.15
289.15
289.15
289.15
289.15
289.15
289.15
289.15
289.15
289.15
289.15
289.15
289.15
289.15
289.15
289.15
289.15
289.15
289.15
289.15
289.15
289.15
289.15
289.15
289.15
289.15
289.15
289.15
289.15
289.15
289.15
289.15
289.15
289.15
289.15
289.15
289.15
289.15
289.15
289.15
289.15
289.15
289.15
289.15
289.15
289.15
289.15
289.15
289.15
289.15
289.15
289.15
289.15
289.15
289.15
289.15
289.15
289.15
289.15
289.15
289.15
289.15
289.15
289.15
289.15
289.15
289.15
289.15
289.15
289.15
289.15
289.15
289.15
289.15
289.15
289.15
289.15
289.15
289.15
289.15
289.15
289.15
289.15
289.15
289.15
289.15
289.15
289.15
289.15
289.15
289.15
289.15
289.15
289.15
289.15
289.15
289.15
289.15
289.15
289.15
289.15
289.15
289.15
289.15
289.15
289.15
289.15
289.15
289.15
289.15
289.15
289.15
289.15
289.15
289.15
289.15
289.15
289.15
289.15
289.15
289.15
289.15
289.15
289.15
289.15
289.15
289.15
289.15
289.15
289.15
289.15
289.15
289.15
289.15
289.15
289.15
289.15
289.15
289.15
289.15
289.15
289.15
289.15
289.15
289.15
289.15
289.15
289.15
289.15
289.15
289.15
289.15
289.15
289.15
289.15
289.15
289.15
289.15
289.15
289.15
289.15
289.15
289.15
289.15
289.15
289.15
289.15
289.15
289.15
289.15
289.15
289.15
289.15
289.15
289.15
289.15
289.15
289.15
289.15
289.15
289.15
289.15
289.15
289.15
289.15
289.15
289.15
289.15
289.15
289.15
289.15
289.15
289.15
289.15
289.15
289.15
289.15
289.15
289.15
289.15
289.15
289.15
289.15
289.15
289.15
289.15
289.15
289.15
289.15
289.15
289.15
289.15
289.15
289.15
289.15
289.15
289.15
289.15
289.15
289.15
289.15
289.15
289.15
289.15
289.15
289.15
289.15
289.15
289.15
289.15
289.15
289.15
289.15
289.15
289.15
289.15
289.15
289.15
289.15
289.15
289.15
289.15
289.15
289.15
289.15
289.15
289.15
289.15
289.15
289.15
289.15
289.15
289.15
289.15
289.15
289.15
289.15
289.15
289.15
289.15
289.15
289.15
289.15
289.15
289.15
289.15
289.15
289.15
289.15
289.15
289.15
289.15
289.15
289.15
289.15
289.15
289.15
289.15
289.15
289.15
289.15
289.15
289.15
289.15
289.15
289.15
289.15
289.15
289.15
289.15
289.15
289.15
289.15
289.15
289.15
289.15
289.15
289.15
289.15
289.15
289.15
289.15
289.15
289.15
289.15
289.15
289.15
289.15
289.15
289.15
289.15
289.15
289.15
289.15
289.15
289.15
289.15
289.15
289.15
289.15
289.15
289.15
289.15
289.15
289.15
289.15
289.15
289.15
289.15
289.15
289.15
289.15
289.15
289.15
289.15
289.15
289.15
289.15
289.15
289.15
289.15
289.15
289.15
289.15
289.15
289.15
289.15
289.15
289.15
289.15
289.15
289.15
289.15
289.15
289.15
289.15
289.15
289.15
289.15
289.15
289.15
289.15
289.15
289.15
289.15
289.15
289.15
289.15
289.15
289.15
289.15
289.15
289.15
289.15
289.15
289.15
289.15
289.15
289.15
289.15
289.15
289.15
289.15
289.15
289.15
289.15
289.15
289.15
289.15
289.15
289.15
289.15
289.15
289.15
289.15
289.15
289.15
289.15
289.15
289.15
289.15
289.15
289.15
289.15
289.15
289.15
289.15
289.15
289.15
289.15
289.15
289.15
289.15
289.15
289.15
289.15
289.15
289.15
289.15
289.15
289.15
289.15
289.15
289.15
289.15
289.15
289.15
289.15
289.15
289.15
289.15
289.15
289.15
289.15
289.15
289.15
289.15
289.15
289.15
289.15
289.15
289.15
289.15
289.15
289.15
289.15
289.15
289.15
289.15
289.15
289.15
289.15
289.15
289.15
289.15
289.15
289.15
289.15
289.15
289.15
289.15
289.15
289.15
289.15
289.15
289.15
289.15
289.15
289.15
289.15
289.15
289.15
289.15
289.15
289.15
289.15
289.15
289.15
289.15
289.15
289.15
289.15
289.15
289.15
289.15
289.15
289.15
289.15
289.15
289.15
289.15
289.15
289.15
289.15
289.15
289.15
289.15
289.15
289.15
289.15
289.15
289.15
289.15
289.15
289.15
289.15
289.15
289.15
289.15
289.15
289.15
289.15
289.15
289.15
289.15
289.15
289.15
289.15
289.15
289.15
289.15
289.15
289.15
289.15
289.15
289.15
289.15
289.15
289.15
289.15
289.15
289.15
289.15
289.15
289.15
289.15
289.15
289.15
289.15
289.15
289.15
289.15
289.15
289.15
289.15
289.15
289.15
289.15
289.15
289.15
289.15
289.15
289.15
289.15
289.15
289.15
289.15
289.15
289.15
289.15
289.15
289.15
289.15
289.15
289.15
289.15
289.15
289.15
289.15
289.15
289.15
289.15
289.15
289.15
289.15
289.15
289.15
289.15
289.15
289.15
289.15
289.15
289.15
289.15
289.15
289.15
289.15
289.15
289.15
289.15
289.15
289.15
289.15
289.15
289.15
289.15
289.15
289.15
289.15
289.15
289.15
289.15
289.15
289.15
289.15
289.15
289.15
289.15
289.15
289.15
289.15
289.15
289.15
289.15
289.15
289.15
289.15
289.15
289.15
289.15
289.15
289.15
289.15
289.15
289.15
289.15
289.15
289.15
289.15
289.15
289.15
289.15
289.15
289.15
289.15
289.15
289.15
289.15
289.15
289.15
289.15
289.15
289.15
289.15
289.15
289.15
289.15
289.15
289.15
289.15
289.15
289.15
289.15
289.15
289.15
289.15
289.15
289.15
289.15
289.15
289.15
289.15
289.15
289.15
289.15
289.15
289.15
289.15
289.15
289.15
289.15
289.15
289.15
289.15
289.15
289.15
289.15
289.15
289.15
289.15
289.15
289.15
289.15
289.15
289.15
289.15
289.15
289.15
289.15
289.15
289.15
289.15
289.15
289.15
289.15
289.15
289.15
289.15
289.15
289.15
289.15
289.15
289.15
289.15
289.15
289.15
289.15
289.15
289.15
289.15
289.15
289.15
289.15
289.15
289.15
289.15
289.15
289.15
289.15
289.15
289.15
289.15
289.15
289.15
289.15
289.15
289.15
289.15
289.15
289.15
289.15
289.15
289.15
289.15
289.15
289.15
289.15
289.15
289.15
289.15
289.15
289.15
289.15
289.15
289.15
289.15
289.15
289.15
289.15
289.15
289.15
289.15
289.15
289.15
289.15
289.15
289.15
289.15
289.15
289.15
289.15
289.15
289.15
289.15
289.15
289.15
289.15
289.15
289.15
289.15
289.15
289.15
289.15
289.15
289.15
289.15
289.15
289.15
289.15
289.15
289.15
289.15
289.15
289.15
289.15
289.15
289.15
289.15
289.15
289.15
289.15
289.15
289.15
289.15
289.15
289.15
289.15
289.15
289.15
289.15
289.15
289.15
289.15
289.15
289.15
289.15
289.15
289.15
289.15
289.15
289.15
289.15
289.15
289.15
289.15
289.15
289.15
289.15
289.15
289.15
289.15
289.15
289.15
289.15
289.15
289.15
289.15
289.15
289.15
289.15
289.15
289.15
289.15
289.15
289.15
289.15
289.15
289.15
289.15
289.15
289.15
289.15
289.15
289.15
289.15
289.15
289.15
289.15
289.15
289.15
289.15
289.15
289.15
289.15
289.15
289.15
289.15
289.15
289.15
289.15
289.15
289.15
289.15
289.15
289.15
289.15
289.15
289.15
289.15
289.15
289.15
289.15
289.15
289.15
289.15
289.15
289.15
289.15
289.15
289.15
289.15
289.15
289.15
289.15
289.15
289.15
289.15
289.15
289.15
289.15
289.15
289.15
289.15
289.15
289.15
289.15
289.15
289.15
289.15
289.15
289.15
289.15
289.15
289.15
289.15
289.15
289.15
289.15
289.15
289.15
289.15
289.15
289.15
289.15
289.15
289.15
289.15
289.15
289.15
289.15
289.15
289.15
289.15
289.15
289.15
289.15
289.15
289.15
289.15
289.15
289.15
289.15
289.15
289.15
289.15
289.15
289.15
289.15
289.15
289.15
289.15
289.15
289.15
289.15
289.15
289.15
289.15
289.15
289.15
289.15
289.15
289.15
289.15
289.15
289.15
289.15
289.15
289.15
289.15
289.15
289.15
289.15
289.15
289.15
289.15
289.15
289.15
289.15
289.15
289.15
289.15
289.15
289.15
289.15
289.15
289.15
289.15
289.15
289.15
289.15
289.15
289.15
289.15
289.15
289.15
289.15
289.15
289.15
289.15
289.15
289.15
289.15
289.15
289.15
289.15
289.15
289.15
289.15
289.15
289.15
289.15
289.15
289.15
289.15
289.15
289.15
289.15
289.15
289.15
289.15
289.15
289.15
289.15
289.15
289.15
289.15
289.15
289.15
289.15
289.15
289.15
289.15
289.15
289.15
289.15
289.15
289.15
289.15
289.15
289.15
289.15
289.15
289.15
289.15
289.15
289.15
289.15
289.15
289.15
289.15
289.15
289.15
289.15
289.15
289.15
289.15
289.15
289.15
289.15
289.15
289.15
289.15
289.15
289.15
289.15
289.15
289.15
289.15
289.15
289.15
289.15
289.15
289.15
289.15
289.15
289.15
289.15
289.15
289.15
289.15
289.15
289.15
289.15
289.15
289.15
289.15
289.15
289.15
289.15
289.15
289.15
289.15
289.15
289.15
289.15
289.15
289.15
289.15
289.15
289.15
289.15
289.15
289.15
289.15
289.15
289.15
289.15
289.15
289.15
289.15
289.15
289.15
289.15
289.15
289.15
289.15
289.15
289.15
289.15
289.15
289.15
289.15
289.15
289.15
289.15
289.15
289.15
289.15
289.15
289.151
289.15
289.15
289.15
289.15
289.15
289.15
289.15
289.15
289.15
289.15
289.15
289.15
289.15
289.15
289.15
289.15
289.15
289.15
289.15
289.15
289.15
289.15
289.15
289.15
289.15
289.15
289.15
290.205
290.206
290.207
290.208
290.208
290.209
290.204
290.205
290.206
290.207
290.207
290.208
290.203
290.204
290.205
290.207
290.208
290.209
290.073
290.053
290.038
290.024
290.011
290.066
290.047
290.031
290.018
290.008
290.047
290.03
290.016
290.005
289.996
290.028
290.014
290.003
289.995
289.988
290.01
290.001
289.993
289.988
289.983
289.995
289.99
289.986
289.983
289.981
289.982
289.982
289.983
289.986
289.988
289.976
289.991
290.013
290.037
290.055
289.998
290.152
290.313
290.462
290.545
290.189
291.842
292.916
293.814
294.052
290.773
296.984
298.162
298.558
298.668
291.929
298.936
299.07
299.078
299.079
291.318
290.937
290.691
290.526
290.405
290.309
290.219
290.1
289.812
289.192
289.154
289.15
289.15
289.655
289.168
289.151
289.15
289.15
289.574
289.162
289.15
289.15
289.15
289.525
289.161
289.15
289.15
289.15
289.523
289.162
289.151
289.15
289.15
289.151
289.519
289.188
289.162
289.16
289.16
289.164
289.639
289.528
289.501
289.486
289.508
289.543
289.678
289.666
289.654
289.652
289.682
289.707
289.703
289.695
289.683
289.683
289.709
289.726
289.715
289.705
289.694
289.692
289.709
289.723
290.208
290.209
290.21
290.21
290.211
290.212
290.21
290.21
290.211
290.211
290.211
290.212
290.206
290.207
290.208
290.209
290.21
290.211
290.038
290.024
290.014
290.005
289.997
290.015
289.997
289.985
289.978
289.973
289.989
289.975
289.965
289.96
289.957
289.964
289.955
289.95
289.948
289.948
289.944
289.941
289.94
289.942
289.945
289.929
289.932
289.938
289.944
289.95
289.923
289.937
289.952
289.967
289.978
289.937
289.985
290.038
290.085
290.115
290.022
290.286
290.539
290.747
290.845
290.376
292.236
293.593
294.634
294.96
291.163
296.693
298.035
298.48
298.611
292.186
298.726
299.021
299.054
299.061
291.483
291.054
290.787
290.607
290.476
290.37
290.267
290.11
289.757
289.232
289.16
289.151
289.151
289.606
289.189
289.152
289.15
289.15
289.53
289.175
289.151
289.15
289.15
289.485
289.171
289.151
289.15
289.15
289.488
289.176
289.152
289.151
289.151
289.486
289.218
289.175
289.17
289.171
289.178
289.57
289.475
289.459
289.448
289.466
289.497
289.629
289.612
289.604
289.612
289.645
289.671
289.67
289.667
289.661
289.672
289.701
289.715
289.703
289.696
289.686
289.686
289.705
289.716
290.218
290.218
290.218
290.219
290.219
290.219
290.219
290.22
290.221
290.22
290.22
290.22
290.215
290.216
290.217
290.217
290.217
290.217
290.008
289.986
289.972
289.964
289.961
289.961
289.96
289.946
289.939
289.936
289.936
289.928
289.92
289.917
289.918
289.921
289.9
289.899
289.902
289.908
289.915
289.881
289.888
289.898
289.909
289.92
289.875
289.893
289.913
289.933
289.949
289.892
289.934
289.979
290.017
290.041
289.962
290.088
290.215
290.316
290.359
290.18
290.667
291.165
291.578
291.683
290.763
293.075
294.538
295.494
295.847
291.693
296.734
298.047
298.471
298.599
292.785
298.667
299
299.041
299.05
291.723
291.174
290.865
290.662
290.514
290.388
290.262
290.063
289.693
289.264
289.17
289.153
289.153
289.557
289.21
289.156
289.15
289.151
289.492
289.188
289.152
289.15
289.15
289.452
289.181
289.152
289.15
289.15
289.458
289.189
289.155
289.152
289.152
289.461
289.242
289.188
289.179
289.18
289.527
289.441
289.429
289.421
289.434
289.459
289.584
289.567
289.568
289.581
289.607
289.624
289.637
289.634
289.633
289.65
289.671
289.68
289.683
289.677
289.669
289.674
289.688
289.694
290.23
290.23
290.23
290.23
290.229
290.229
290.231
290.232
290.233
290.232
290.232
290.231
290.226
290.227
290.227
290.228
290.227
290.227
289.971
289.952
289.94
289.932
289.929
289.93
289.932
289.918
289.91
289.906
289.907
289.91
289.88
289.879
289.884
289.891
289.899
289.851
289.86
289.874
289.888
289.902
289.838
289.861
289.885
289.908
289.927
289.851
289.895
289.939
289.977
290.004
289.911
290.008
290.101
290.17
290.203
290.073
290.332
290.567
290.725
290.771
290.456
291.347
292.108
292.646
292.759
291.197
293.701
295.22
296.105
296.434
292.219
296.796
298.078
298.477
298.597
293.212
298.648
298.992
299.036
299.046
291.844
291.216
290.879
290.658
290.491
290.343
290.196
289.979
289.629
289.284
289.181
289.156
289.157
289.515
289.228
289.16
289.151
289.151
289.459
289.2
289.154
289.15
289.15
289.426
289.191
289.153
289.15
289.15
289.432
289.202
289.158
289.153
289.153
289.441
289.26
289.2
289.188
289.189
289.497
289.421
289.407
289.4
289.409
289.552
289.533
289.54
289.554
289.573
289.582
289.612
289.608
289.608
289.626
289.64
289.646
289.669
289.661
289.649
289.655
289.664
289.669
290.243
290.243
290.243
290.243
290.242
290.241
290.244
290.245
290.246
290.246
290.245
290.244
290.239
290.24
290.24
290.24
290.239
290.238
289.947
289.932
289.922
289.916
289.913
289.913
289.897
289.889
289.886
289.888
289.892
289.898
289.845
289.846
289.855
289.867
289.881
289.895
289.821
289.843
289.87
289.895
289.916
289.822
289.867
289.913
289.951
289.981
289.869
289.956
290.04
290.103
290.135
290.001
290.196
290.36
290.464
290.491
290.29
290.772
291.184
291.423
291.418
290.808
291.998
292.946
293.56
293.716
291.608
294.216
295.749
296.568
296.861
292.597
296.873
298.115
298.495
298.605
293.437
298.641
298.99
299.034
299.044
291.795
291.139
290.796
290.564
290.381
290.218
290.072
289.872
289.57
289.295
289.192
289.161
289.162
289.479
289.243
289.167
289.153
289.153
289.433
289.211
289.157
289.151
289.151
289.404
289.2
289.155
289.151
289.151
289.411
289.214
289.161
289.155
289.155
289.425
289.273
289.211
289.196
289.197
289.475
289.407
289.39
289.383
289.391
289.529
289.509
289.518
289.53
289.54
289.593
289.588
289.59
289.604
289.614
289.617
289.658
289.646
289.634
289.637
289.644
289.647
290.256
290.258
290.258
290.257
290.256
290.254
290.258
290.26
290.261
290.261
290.26
290.258
290.253
290.254
290.254
290.254
290.253
290.251
289.932
289.921
289.914
289.91
289.908
289.909
289.874
289.871
289.874
289.881
289.89
289.899
289.817
289.828
289.846
289.868
289.891
289.91
289.781
289.811
289.852
289.895
289.933
289.963
289.84
289.92
289.994
290.055
290.091
289.94
290.102
290.245
290.329
290.355
290.155
290.489
290.774
290.928
290.91
290.538
291.233
291.816
292.157
292.173
291.13
292.556
293.651
294.316
294.49
291.924
294.614
296.152
296.921
297.181
292.782
296.938
298.149
298.518
298.621
293.396
298.628
298.989
299.035
299.045
291.557
290.926
290.6
290.372
290.188
290.037
289.912
289.761
289.519
289.298
289.202
289.168
289.17
289.449
289.254
289.174
289.155
289.156
289.411
289.22
289.16
289.151
289.151
289.387
289.208
289.157
289.151
289.151
289.394
289.224
289.166
289.157
289.157
289.412
289.283
289.221
289.203
289.204
289.458
289.397
289.378
289.371
289.377
289.511
289.491
289.498
289.507
289.513
289.577
289.569
289.573
289.584
289.59
289.646
289.631
289.618
289.621
289.626
289.628
290.271
290.273
290.273
290.272
290.271
290.269
290.273
290.276
290.277
290.276
290.275
290.273
290.269
290.27
290.27
290.269
290.267
290.265
289.926
289.918
289.913
289.911
289.911
289.913
289.86
289.863
289.872
289.884
289.898
289.912
289.804
289.824
289.854
289.888
289.92
289.946
289.775
289.824
289.889
289.956
290.009
290.049
289.782
289.883
290.014
290.14
290.224
290.258
290.033
290.288
290.515
290.648
290.655
290.311
290.788
291.203
291.437
291.431
290.747
291.638
292.386
292.823
292.865
291.358
292.984
294.211
294.924
295.11
292.096
294.874
296.442
297.187
297.423
292.791
296.935
298.17
298.542
298.641
293.095
298.616
298.987
299.036
299.046
291.274
290.627
290.33
290.129
289.972
289.85
289.765
289.665
289.478
289.298
289.21
289.176
289.179
289.425
289.262
289.182
289.159
289.16
289.394
289.229
289.163
289.152
289.152
289.374
289.215
289.159
289.152
289.152
289.381
289.233
289.17
289.159
289.158
289.401
289.291
289.229
289.209
289.21
289.445
289.39
289.369
289.361
289.367
289.498
289.477
289.481
289.487
289.492
289.564
289.553
289.557
289.565
289.568
289.634
289.616
289.603
289.606
289.609
290.286
290.289
290.289
290.289
290.287
290.284
290.29
290.293
290.294
290.293
290.292
290.289
290.287
290.288
290.287
290.286
290.283
290.28
289.927
289.922
289.919
289.919
289.921
289.925
289.857
289.866
289.88
289.898
289.917
289.936
289.806
289.836
289.878
289.926
289.969
290.005
289.784
289.852
289.945
290.043
290.124
290.166
289.801
289.937
290.122
290.306
290.432
290.468
289.87
290.122
290.465
290.786
290.984
291.006
290.433
291.043
291.593
291.917
291.935
290.886
291.947
292.855
293.392
293.467
291.474
293.268
294.629
295.4
295.601
292.122
294.999
296.634
297.383
297.607
292.642
296.872
298.173
298.563
298.661
292.665
298.593
298.985
299.037
299.048
290.96
290.313
290.067
289.911
289.799
289.718
289.667
289.593
289.447
289.297
289.217
289.185
289.189
289.405
289.268
289.189
289.164
289.166
289.38
289.236
289.168
289.154
289.154
289.364
289.222
289.162
289.152
289.152
289.37
289.24
289.175
289.161
289.161
289.393
289.296
289.236
289.215
289.216
289.435
289.385
289.362
289.354
289.359
289.487
289.466
289.466
289.47
289.474
289.552
289.539
289.542
289.548
289.55
289.62
289.599
289.589
289.59
289.592
290.303
290.306
290.306
290.306
290.304
290.301
290.308
290.311
290.312
290.311
290.309
290.306
290.306
290.307
290.306
290.303
290.3
290.296
289.937
289.933
289.931
289.933
289.937
289.944
289.868
289.88
289.899
289.923
289.948
289.973
289.82
289.858
289.913
289.978
290.04
290.081
289.803
289.887
290.007
290.142
290.25
290.303
289.826
289.99
290.225
290.467
290.64
290.695
289.898
290.194
290.615
291.028
291.299
291.346
290.022
290.514
291.236
291.916
292.338
292.391
290.957
292.155
293.215
293.857
293.973
291.496
293.422
294.919
295.761
295.984
292.042
295.016
296.745
297.523
297.745
292.406
296.763
298.161
298.579
298.68
292.248
298.548
298.983
299.039
299.05
290.667
290.059
289.873
289.764
289.69
289.639
289.605
289.542
289.423
289.296
289.224
289.193
289.199
289.389
289.271
289.197
289.17
289.173
289.369
289.243
289.172
289.156
289.156
289.355
289.228
289.165
289.153
289.153
289.362
289.247
289.179
289.163
289.163
289.385
289.3
289.242
289.22
289.221
289.427
289.38
289.357
289.349
289.353
289.479
289.457
289.454
289.457
289.46
289.542
289.527
289.528
289.532
289.533
289.606
289.582
289.575
289.575
289.577
290.32
290.324
290.325
290.324
290.322
290.318
290.328
290.331
290.331
290.33
290.328
290.324
290.327
290.327
290.325
290.322
290.318
290.313
289.957
289.953
289.951
289.954
289.961
289.969
289.891
289.904
289.926
289.956
289.991
290.019
289.846
289.889
289.954
290.037
290.115
290.166
289.832
289.927
290.071
290.235
290.373
290.443
289.857
290.041
290.314
290.61
290.833
290.912
289.926
290.25
290.732
291.229
291.575
291.656
290.04
290.565
291.371
292.167
292.689
292.786
290.183
290.981
292.278
293.474
294.223
294.385
291.462
293.481
295.107
296.028
296.277
291.912
294.962
296.799
297.622
297.848
292.153
296.639
298.141
298.591
298.695
291.885
298.508
298.981
299.04
299.052
290.424
289.898
289.752
289.675
289.624
289.59
289.565
289.506
289.405
289.295
289.229
289.201
289.209
289.376
289.274
289.205
289.178
289.182
289.359
289.248
289.178
289.158
289.16
289.348
289.234
289.169
289.154
289.155
289.355
289.252
289.184
289.165
289.166
289.38
289.303
289.248
289.225
289.226
289.421
289.377
289.353
289.344
289.348
289.472
289.45
289.444
289.445
289.449
289.533
289.516
289.515
289.517
289.519
289.589
289.567
289.561
289.561
289.563
290.339
290.342
290.344
290.343
290.34
290.336
290.349
290.352
290.352
290.351
290.348
290.343
290.35
290.35
290.347
290.343
290.337
290.331
289.987
289.981
289.979
289.983
289.99
289.998
289.924
289.936
289.96
289.997
290.037
290.069
289.882
289.927
290.002
290.097
290.188
290.25
289.87
289.972
290.132
290.321
290.487
290.575
289.895
290.091
290.391
290.732
291.002
291.108
289.961
290.298
290.822
291.391
291.808
291.927
290.062
290.601
291.463
292.356
292.972
293.117
290.185
290.986
292.344
293.655
294.505
294.715
290.299
291.41
293.485
295.222
296.222
296.499
291.781
294.882
296.819
297.69
297.924
291.936
296.529
298.122
298.6
298.706
291.609
298.482
298.981
299.042
299.053
290.252
289.802
289.681
289.622
289.585
289.561
289.539
289.48
289.391
289.294
289.234
289.209
289.219
289.366
289.276
289.212
289.186
289.191
289.352
289.252
289.184
289.162
289.164
289.343
289.239
289.173
289.156
289.156
289.35
289.257
289.189
289.168
289.168
289.375
289.305
289.252
289.229
289.23
289.415
289.374
289.35
289.34
289.344
289.466
289.443
289.436
289.435
289.439
289.523
289.506
289.504
289.505
289.507
289.573
289.553
289.548
289.548
289.55
290.359
290.363
290.364
290.363
290.36
290.355
290.372
290.375
290.374
290.372
290.369
290.363
290.376
290.374
290.37
290.364
290.358
290.35
290.026
290.018
290.016
290.018
290.024
290.03
289.967
289.978
290.004
290.042
290.085
290.121
289.929
289.975
290.053
290.155
290.259
290.331
289.919
290.024
290.192
290.4
290.59
290.696
289.944
290.143
290.461
290.837
291.149
291.281
290.005
290.347
290.898
291.521
292.002
292.157
290.096
290.636
291.531
292.499
293.199
293.389
290.202
290.992
292.383
293.782
294.721
294.974
290.292
291.37
293.47
295.295
296.364
296.664
290.326
291.683
294.812
296.826
297.741
297.977
291.781
296.454
298.111
298.609
298.713
291.422
298.473
298.984
299.044
299.055
290.142
289.747
289.64
289.592
289.562
289.542
289.521
289.461
289.38
289.294
289.24
289.217
289.229
289.358
289.278
289.219
289.194
289.201
289.345
289.256
289.19
289.166
289.169
289.338
289.244
289.177
289.158
289.159
289.346
289.26
289.194
289.171
289.171
289.37
289.307
289.256
289.233
289.235
289.411
289.371
289.347
289.337
289.341
289.46
289.437
289.429
289.427
289.431
289.514
289.496
289.493
289.493
289.496
289.558
289.54
289.535
289.535
289.538
290.38
290.384
290.385
290.384
290.381
290.375
290.397
290.399
290.398
290.395
290.391
290.384
290.403
290.4
290.394
290.387
290.379
290.371
290.075
290.067
290.061
290.058
290.061
290.066
290.021
290.031
290.053
290.09
290.134
290.173
289.987
290.031
290.108
290.215
290.327
290.407
289.979
290.082
290.254
290.476
290.685
290.805
290.004
290.203
290.53
290.93
291.276
291.432
290.061
290.403
290.968
291.631
292.163
292.351
290.145
290.68
291.592
292.614
293.381
293.61
290.238
291.013
292.418
293.879
294.889
295.175
290.312
291.358
293.465
295.35
296.473
296.785
290.327
291.63
294.775
296.84
297.782
298.012
290.242
291.692
296.426
298.114
298.62
298.717
291.312
298.483
298.988
299.046
299.056
290.079
289.719
289.619
289.576
289.55
289.532
289.51
289.447
289.372
289.294
289.245
289.226
289.239
289.351
289.279
289.226
289.203
289.212
289.34
289.259
289.196
289.172
289.176
289.334
289.248
289.181
289.16
289.161
289.342
289.264
289.199
289.174
289.175
289.367
289.308
289.26
289.237
289.239
289.406
289.369
289.345
289.335
289.339
289.454
289.432
289.422
289.42
289.424
289.504
289.488
289.483
289.483
289.487
289.544
289.528
289.523
289.524
289.527
290.403
290.407
290.408
290.407
290.403
290.396
290.425
290.426
290.424
290.42
290.414
290.407
290.434
290.429
290.421
290.412
290.403
290.392
290.137
290.124
290.111
290.103
290.101
290.103
290.087
290.092
290.109
290.142
290.186
290.225
290.057
290.095
290.169
290.277
290.395
290.481
290.051
290.15
290.322
290.551
290.774
290.906
290.077
290.272
290.603
291.02
291.391
291.565
290.133
290.471
291.043
291.732
292.303
292.515
290.212
290.74
291.659
292.716
293.534
293.789
290.297
291.058
292.467
293.967
295.027
295.33
290.358
291.379
293.49
295.409
296.563
296.871
290.359
291.626
294.786
296.872
297.821
298.031
290.262
291.662
296.449
298.135
298.634
298.716
290.048
291.261
298.508
298.994
299.049
299.057
290.049
289.708
289.611
289.57
289.545
289.527
289.502
289.437
289.366
289.294
289.25
289.234
289.249
289.346
289.281
289.232
289.211
289.222
289.336
289.262
289.203
289.178
289.183
289.331
289.252
289.186
289.163
289.165
289.339
289.266
289.203
289.177
289.178
289.363
289.309
289.263
289.24
289.242
289.402
289.367
289.343
289.334
289.338
289.449
289.427
289.417
289.414
289.418
289.496
289.48
289.474
289.474
289.478
289.531
289.516
289.512
289.513
289.517
290.427
290.431
290.432
290.431
290.426
290.419
290.455
290.455
290.453
290.448
290.441
290.431
290.469
290.462
290.452
290.44
290.428
290.415
290.209
290.189
290.169
290.154
290.146
290.143
290.164
290.162
290.172
290.199
290.24
290.279
290.138
290.169
290.238
290.344
290.464
290.554
290.135
290.228
290.397
290.629
290.861
291.001
290.163
290.353
290.684
291.11
291.498
291.684
290.22
290.553
291.128
291.832
292.429
292.655
290.298
290.82
291.742
292.82
293.669
293.935
290.377
291.13
292.541
294.061
295.147
295.448
290.43
291.438
293.553
295.484
296.645
296.926
290.42
291.666
294.849
296.927
297.863
298.038
290.309
291.681
296.523
298.173
298.652
298.713
290.084
291.255
298.547
299.002
299.052
299.057
289.798
290.045
289.712
289.613
289.571
289.546
289.526
289.499
289.43
289.362
289.295
289.255
289.242
289.259
289.343
289.282
289.238
289.22
289.233
289.332
289.265
289.209
289.185
289.192
289.328
289.255
289.191
289.167
289.169
289.336
289.269
289.208
289.181
289.182
289.36
289.309
289.266
289.244
289.246
289.398
289.365
289.342
289.332
289.337
289.444
289.423
289.412
289.409
289.413
289.487
289.472
289.466
289.466
289.47
289.518
289.506
289.502
289.503
289.507
290.453
290.457
290.459
290.457
290.452
290.443
290.49
290.489
290.485
290.479
290.47
290.459
290.51
290.5
290.487
290.473
290.457
290.441
290.292
290.264
290.235
290.211
290.195
290.186
290.253
290.242
290.243
290.263
290.299
290.335
290.231
290.254
290.315
290.418
290.538
290.629
290.232
290.317
290.482
290.715
290.951
291.094
290.264
290.449
290.778
291.208
291.606
291.795
290.325
290.654
291.229
291.941
292.551
292.779
290.404
290.923
291.847
292.934
293.795
294.055
290.482
291.231
292.647
294.171
295.259
295.534
290.529
291.532
293.661
295.581
296.724
296.956
290.507
291.748
294.965
297.008
297.907
298.033
290.382
291.741
296.64
298.228
298.667
298.707
290.141
291.284
298.594
299.01
299.054
299.058
289.844
290.06
289.696
289.727
289.624
289.58
289.552
289.53
289.498
289.426
289.36
289.297
289.261
289.25
289.269
289.341
289.285
289.244
289.228
289.243
289.33
289.268
289.216
289.193
289.202
289.326
289.258
289.197
289.171
289.174
289.334
289.271
289.212
289.185
289.186
289.358
289.31
289.269
289.247
289.25
289.395
289.364
289.341
289.332
289.336
289.439
289.419
289.408
289.404
289.409
289.479
289.465
289.459
289.458
289.463
289.506
289.495
289.492
289.493
289.497
290.482
290.487
290.488
290.487
290.481
290.471
290.53
290.529
290.525
290.516
290.505
290.491
290.564
290.552
290.535
290.515
290.494
290.473
290.387
290.349
290.309
290.274
290.249
290.234
290.354
290.332
290.323
290.335
290.366
290.398
290.337
290.35
290.404
290.502
290.621
290.71
290.345
290.421
290.581
290.812
291.05
291.191
290.383
290.562
290.889
291.32
291.72
291.905
290.45
290.775
291.351
292.065
292.677
292.893
290.533
291.052
291.979
293.065
293.922
294.154
290.612
291.363
292.788
294.303
295.369
295.59
290.654
291.662
293.812
295.704
296.802
296.963
290.622
291.868
295.128
297.114
297.944
298.017
290.48
291.84
296.788