/*--------------------------------*- C++ -*----------------------------------*\
| =========                 |                                                 |
| \\      /  F ield         | OpenFOAM: The Open Source CFD Toolbox           |
|  \\    /   O peration     | Version:  2.3.1                                 |
|   \\  /    A nd           | Web:      www.OpenFOAM.org                      |
|    \\/     M anipulation  |                                                 |
\*---------------------------------------------------------------------------*/
FoamFile
{
    version     2.0;
    format      ascii;
    class       volVectorField;
    location    "600";
    object      U;
}
// * * * * * * * * * * * * * * * * * * * * * * * * * * * * * * * * * * * * * //

dimensions      [0 1 -1 0 0 0 0];

internalField   nonuniform List<vector> 
6852
(
(-0.190433 -0.0584265 0.055105)
(-0.173152 -0.0655838 0.0564907)
(-0.151167 -0.0710138 0.057305)
(-0.126156 -0.0748467 0.0579223)
(-0.0997436 -0.0780091 0.0582916)
(-0.0721833 -0.0805556 0.0585686)
(-0.281301 -0.182111 0.03579)
(-0.245061 -0.192356 0.0342034)
(-0.207459 -0.198603 0.0329411)
(-0.169198 -0.201714 0.0322869)
(-0.131873 -0.203835 0.0314614)
(-0.0946588 -0.205254 0.0306839)
(-0.249218 -0.248527 -0.0200124)
(-0.207354 -0.251306 -0.0216643)
(-0.16676 -0.251382 -0.0220236)
(-0.129063 -0.250859 -0.0229219)
(-0.0920712 -0.249972 -0.0238511)
(-0.23609 -0.174289 -0.0930666)
(-0.194231 -0.174577 -0.0934248)
(-0.154471 -0.173788 -0.0921628)
(-0.118893 -0.172859 -0.0924246)
(-0.0840298 -0.171897 -0.0930524)
(-0.232643 -0.0407333 -0.0877689)
(-0.19326 -0.041009 -0.0859222)
(-0.154917 -0.0413501 -0.0841558)
(-0.11984 -0.041347 -0.0839471)
(-0.0851672 -0.0412435 -0.0840224)
(-0.231171 0.0674995 -0.0940933)
(-0.189863 0.0669731 -0.0937149)
(-0.150724 0.0673275 -0.0930136)
(-0.115571 0.0679268 -0.0935089)
(-0.0814895 0.0686118 -0.0941273)
(-0.230588 0.17446 -0.0848913)
(-0.188808 0.175482 -0.08446)
(-0.149658 0.176796 -0.0835811)
(-0.114733 0.177815 -0.0837548)
(-0.0810903 0.178592 -0.0840546)
(-0.227058 0.273805 -0.0792355)
(-0.185437 0.277519 -0.0786121)
(-0.146716 0.280834 -0.0775163)
(-0.112447 0.283244 -0.0774158)
(-0.0795741 0.284995 -0.0774645)
(-0.220247 0.370167 -0.073488)
(-0.179801 0.376595 -0.0725866)
(-0.142213 0.38177 -0.0713001)
(-0.109109 0.385438 -0.0710257)
(-0.0773504 0.38802 -0.070934)
(-0.210538 0.459915 -0.0654985)
(-0.17219 0.469031 -0.0643299)
(-0.136399 0.476036 -0.0629308)
(-0.104917 0.480982 -0.0625694)
(-0.0745856 0.484409 -0.0624021)
(-0.19797 0.546207 -0.0555516)
(-0.162482 0.557251 -0.0540413)
(-0.129115 0.565501 -0.0524997)
(-0.0997092 0.5714 -0.0520494)
(-0.0711615 0.575449 -0.0518056)
(-0.184628 0.614527 -0.0342999)
(-0.15214 0.627125 -0.0328773)
(-0.121428 0.636349 -0.0315391)
(-0.0942119 0.643049 -0.0311884)
(-0.0675777 0.647581 -0.0309898)
(-0.169314 0.649625 -0.0118759)
(-0.140189 0.663522 -0.0103282)
(-0.112588 0.673657 -0.00905058)
(-0.0879126 0.68115 -0.00870301)
(-0.0635996 0.686168 -0.00851007)
(-0.152527 0.654908 0.00738664)
(-0.126878 0.669155 0.00891386)
(-0.102623 0.679625 0.0100973)
(-0.0807545 0.687547 0.0104702)
(-0.059066 0.692841 0.0106688)
(-0.134867 0.637287 0.0203709)
(-0.112755 0.65137 0.0216803)
(-0.0919274 0.66183 0.0226792)
(-0.0730037 0.669828 0.0230725)
(-0.0541329 0.675163 0.0232954)
(-0.117607 0.606854 0.026485)
(-0.098901 0.620149 0.0276205)
(-0.0813563 0.630083 0.0284916)
(-0.065316 0.63772 0.028915)
(-0.0492718 0.642785 0.0291768)
(-0.10154 0.569969 0.0277466)
(-0.085938 0.582104 0.0287436)
(-0.0714284 0.591195 0.0295009)
(-0.0581215 0.598169 0.0299263)
(-0.0448082 0.60273 0.0302119)
(-0.0869394 0.531718 0.0259592)
(-0.074158 0.542585 0.0268307)
(-0.0624339 0.550712 0.0274956)
(-0.0516944 0.55687 0.0279044)
(-0.0409754 0.56079 0.0282018)
(-0.0738223 0.495412 0.0225878)
(-0.0636392 0.505082 0.023327)
(-0.0544887 0.512263 0.0238982)
(-0.0461756 0.517574 0.0242673)
(-0.0379276 0.520793 0.0245626)
(-0.0620236 0.462964 0.0186646)
(-0.054276 0.471652 0.0192592)
(-0.047559 0.478023 0.0197249)
(-0.0415939 0.482556 0.0200312)
(-0.0357545 0.485076 0.0203117)
(-0.0512068 0.43532 0.014863)
(-0.0458167 0.44335 0.0153088)
(-0.0414912 0.449139 0.0156604)
(-0.0378881 0.453038 0.0158909)
(-0.0344904 0.454908 0.016151)
(-0.0409072 0.412717 0.0115914)
(-0.0378969 0.4205 0.0119041)
(-0.0360367 0.426005 0.0121503)
(-0.0349268 0.429472 0.0123079)
(-0.0341303 0.430774 0.0125484)
(-0.0305635 0.394882 0.00908141)
(-0.030065 0.402894 0.00930311)
(-0.030878 0.408463 0.00947259)
(-0.0325286 0.411737 0.00957493)
(-0.0346428 0.412581 0.00980111)
(-0.0195435 0.381128 0.0074665)
(-0.021799 0.389898 0.00766847)
(-0.0256434 0.395918 0.00781119)
(-0.0304747 0.399265 0.00788916)
(-0.0359789 0.399786 0.00810883)
(-0.00715184 0.370485 0.00684051)
(-0.0125123 0.380537 0.00712835)
(-0.0199206 0.387405 0.00731239)
(-0.0285146 0.391101 0.00740905)
(-0.0380736 0.391476 0.00762897)
(0.00735694 0.36151 0.00727688)
(-0.0015673 0.373451 0.00784195)
(-0.0132783 0.381489 0.00816718)
(-0.0263657 0.385763 0.00833613)
(-0.0408325 0.386239 0.00856445)
(0.0245951 0.352607 0.00881002)
(0.0117311 0.36683 0.0099254)
(-0.00532752 0.376346 0.0105657)
(-0.0237405 0.381296 0.0108708)
(-0.0441012 0.382291 0.011119)
(-0.0658248 0.377762 0.0109947)
(0.0453154 0.341325 0.0116088)
(0.0278602 0.358049 0.0137497)
(0.00449606 0.368784 0.0150208)
(-0.0203379 0.374232 0.0156331)
(-0.0475711 0.376416 0.01593)
(-0.0771184 0.371884 0.0155081)
(0.0697141 0.325231 0.015626)
(0.0470195 0.344359 0.0192657)
(0.0161139 0.355648 0.0214593)
(-0.0159569 0.360702 0.0225903)
(-0.0506779 0.365424 0.0229926)
(-0.0899205 0.362037 0.022169)
(0.0982988 0.299648 0.0218095)
(0.0696643 0.319561 0.0284952)
(0.0286217 0.329232 0.0323052)
(-0.00954741 0.331397 0.0343918)
(-0.052013 0.340891 0.035189)
(-0.103907 0.340921 0.0336085)
(0.12887 0.261774 0.0286992)
(0.0934847 0.280641 0.0392598)
(0.0393734 0.283829 0.0447356)
(-0.00106234 0.275556 0.0477324)
(-0.0493577 0.297721 0.0491894)
(-0.117184 0.305925 0.0465198)
(0.162447 0.204904 0.0399554)
(0.1184 0.215671 0.0611524)
(0.0424725 0.204216 0.0732672)
(0.012511 0.182228 0.0805148)
(-0.0337174 0.219494 0.0804403)
(-0.128842 0.24321 0.0731837)
(0.189643 0.126804 0.0478653)
(0.138811 0.122437 0.0766645)
(0.0558711 0.0697495 0.09118)
(0.0346856 -0.0318272 0.0878404)
(-0.0184752 0.0939532 0.102655)
(-0.137793 0.148797 0.0904016)
(0.221391 0.0365994 0.0532915)
(0.179122 -0.0042408 0.0820944)
(0.108288 -0.114682 0.0794476)
(0.0384222 -0.190119 0.0748605)
(-0.0743361 -0.0684442 0.103233)
(-0.174488 0.0413168 0.0981276)
(0.24303 -0.0822158 0.0466794)
(0.198509 -0.138847 0.0676867)
(0.114664 -0.218881 0.0525861)
(0.0262733 -0.266072 0.0515308)
(-0.109313 -0.181314 0.0873338)
(-0.219493 -0.10604 0.089786)
(0.22623 -0.161639 0.026698)
(0.173938 -0.222361 0.0422589)
(0.0921325 -0.287996 0.020839)
(0.0242816 -0.320326 0.0161197)
(-0.0931329 -0.261977 0.0598099)
(-0.212038 -0.203025 0.0668266)
(0.197305 -0.209397 0.0101566)
(0.141817 -0.263335 0.0195568)
(0.0707238 -0.311625 -0.00996068)
(0.0251605 -0.333691 -0.0192969)
(-0.0665088 -0.298817 0.0304351)
(-0.18733 -0.257169 0.0466361)
(0.168968 -0.20893 -0.00514689)
(0.11316 -0.248089 -0.00460931)
(0.0574168 -0.276979 -0.0370462)
(0.021968 -0.292989 -0.0503315)
(-0.0417188 -0.275048 -0.00469096)
(-0.155725 -0.246759 0.0203713)
(0.154791 -0.169416 -0.0143587)
(0.102257 -0.190204 -0.0160034)
(0.0560627 -0.198466 -0.0458831)
(0.0209586 -0.2099 -0.0615822)
(-0.0206346 -0.205572 -0.0249232)
(-0.123239 -0.188041 0.00503548)
(0.139525 -0.107102 -0.0260708)
(0.0957286 -0.112887 -0.0278528)
(0.056622 -0.10659 -0.0507812)
(0.0277079 -0.113248 -0.065085)
(-0.00917119 -0.119174 -0.0402881)
(-0.0847956 -0.108896 -0.013605)
(0.090969 -0.0318566 -0.0262193)
(0.06271 -0.028641 -0.0251472)
(0.0379895 -0.0203569 -0.0326632)
(0.0369438 -0.0202559 -0.0431654)
(0.0223881 -0.0256682 -0.0355683)
(-0.0185915 -0.021277 -0.0180291)
(-0.261402 -0.0567301 0.149325)
(-0.23424 -0.0658108 0.151888)
(-0.20182 -0.0722743 0.153575)
(-0.166457 -0.0764596 0.154899)
(-0.130195 -0.0796787 0.155699)
(-0.0933373 -0.0821595 0.156223)
(-0.318539 -0.156171 0.0804609)
(-0.276352 -0.168827 0.0774447)
(-0.232964 -0.176508 0.075462)
(-0.18907 -0.180251 0.0751154)
(-0.146517 -0.182632 0.0745894)
(-0.104449 -0.184067 0.0740889)
(-0.306667 -0.200217 -0.0637131)
(-0.258807 -0.210421 -0.0671035)
(-0.214908 -0.216061 -0.068611)
(-0.1721 -0.217708 -0.0672737)
(-0.13252 -0.218279 -0.0669697)
(-0.0937485 -0.218027 -0.0669289)
(-0.212909 -0.136605 -0.248326)
(-0.175522 -0.139848 -0.246246)
(-0.138525 -0.140321 -0.241053)
(-0.106303 -0.140456 -0.238626)
(-0.0743973 -0.140104 -0.237225)
(-0.209333 -0.00223923 -0.230466)
(-0.174524 -0.00359097 -0.224845)
(-0.138939 -0.00431829 -0.219489)
(-0.107273 -0.00480022 -0.216758)
(-0.0757373 -0.00507608 -0.21485)
(-0.211699 0.0891985 -0.231984)
(-0.1743 0.088549 -0.228028)
(-0.137743 0.0887704 -0.22401)
(-0.105525 0.0891356 -0.222105)
(-0.0742062 0.0895871 -0.220829)
(-0.212718 0.189894 -0.221677)
(-0.174335 0.191268 -0.218244)
(-0.13757 0.192812 -0.214532)
(-0.105217 0.193965 -0.21268)
(-0.0740619 0.194835 -0.211442)
(-0.210685 0.282012 -0.215758)
(-0.172282 0.286368 -0.212439)
(-0.13581 0.290104 -0.208799)
(-0.103822 0.292757 -0.206937)
(-0.0731487 0.294633 -0.205697)
(-0.205343 0.376434 -0.209779)
(-0.168059 0.38378 -0.206277)
(-0.132588 0.389596 -0.202614)
(-0.10152 0.393651 -0.200776)
(-0.0716801 0.396443 -0.199573)
(-0.197324 0.467809 -0.199886)
(-0.162082 0.478282 -0.196162)
(-0.128204 0.486265 -0.19255)
(-0.0984859 0.491826 -0.19083)
(-0.0697403 0.495624 -0.189712)
(-0.186646 0.565509 -0.187054)
(-0.154196 0.578313 -0.182826)
(-0.122476 0.587773 -0.179067)
(-0.0945644 0.594446 -0.177355)
(-0.0672329 0.598985 -0.176219)
(-0.178125 0.653204 -0.142588)
(-0.147908 0.668231 -0.138957)
(-0.11811 0.679023 -0.135895)
(-0.0916695 0.686693 -0.134665)
(-0.0654526 0.691835 -0.133806)
(-0.168954 0.710755 -0.0952784)
(-0.141195 0.728004 -0.0912758)
(-0.113704 0.740259 -0.0882977)
(-0.0889445 0.749014 -0.0872062)
(-0.0641792 0.754826 -0.0864516)
(-0.160088 0.746648 -0.0537416)
(-0.1346 0.765018 -0.0493615)
(-0.109342 0.778103 -0.046252)
(-0.0862831 0.787564 -0.0450657)
(-0.0630057 0.793835 -0.0443405)
(-0.151712 0.767302 -0.0227385)
(-0.128166 0.78578 -0.0179142)
(-0.104956 0.79897 -0.0144802)
(-0.0835325 0.808646 -0.0129483)
(-0.0617783 0.815064 -0.0120495)
(-0.143481 0.776789 -0.00128194)
(-0.121733 0.794739 0.00381219)
(-0.100464 0.807564 0.00753031)
(-0.0806509 0.817035 0.00946233)
(-0.060478 0.823296 0.0106288)
(-0.135275 0.779032 0.0123793)
(-0.115123 0.795568 0.0173398)
(-0.095703 0.807404 0.0210643)
(-0.0775301 0.816214 0.0232208)
(-0.0590318 0.822003 0.0245955)
(-0.126762 0.775965 0.0199371)
(-0.108308 0.791031 0.0245043)
(-0.0907946 0.801833 0.0280123)
(-0.0743513 0.809859 0.0301987)
(-0.0576153 0.815052 0.0316929)
(-0.118195 0.770121 0.0231522)
(-0.101548 0.783817 0.0271462)
(-0.0859699 0.793602 0.0303216)
(-0.0713217 0.800789 0.0324245)
(-0.0564156 0.805299 0.0339934)
(-0.109709 0.763218 0.0235432)
(-0.0949484 0.775771 0.026887)
(-0.0813506 0.784651 0.0296645)
(-0.0685741 0.79103 0.0316008)
(-0.0555838 0.794808 0.0332158)
(-0.101253 0.75643 0.0223725)
(-0.0884808 0.768179 0.0250279)
(-0.076951 0.776363 0.0273731)
(-0.0661628 0.782039 0.0290875)
(-0.0552242 0.785068 0.0307305)
(-0.0926211 0.750454 0.0206919)
(-0.0819865 0.761822 0.0226456)
(-0.0726809 0.769596 0.0245507)
(-0.0640728 0.774729 0.0260317)
(-0.0554103 0.777017 0.027697)
(-0.0834796 0.745537 0.0193967)
(-0.0751968 0.75701 0.0207069)
(-0.0683669 0.764712 0.022181)
(-0.0622323 0.769495 0.0234449)
(-0.0561875 0.771071 0.0251367)
(-0.0733856 0.741495 0.019257)
(-0.0677417 0.753586 0.0200932)
(-0.0637557 0.761577 0.0212131)
(-0.0605158 0.766224 0.0223086)
(-0.0575767 0.767139 0.0240343)
(-0.0617796 0.737731 0.0209603)
(-0.0591487 0.750947 0.0216652)
(-0.0585194 0.759576 0.0226277)
(-0.0587454 0.7643 0.0236709)
(-0.0595784 0.764642 0.0254375)
(-0.0479661 0.733143 0.0252647)
(-0.0488234 0.747908 0.0264708)
(-0.0522557 0.757415 0.0276474)
(-0.0566792 0.762372 0.0288407)
(-0.0621532 0.762302 0.0306504)
(-0.0311496 0.726164 0.0330064)
(-0.0361014 0.742821 0.0357598)
(-0.0445649 0.753281 0.0377695)
(-0.0540293 0.758521 0.0394034)
(-0.0651964 0.758359 0.0412372)
(-0.0102192 0.714119 0.0453859)
(-0.020001 0.73244 0.0515174)
(-0.0349224 0.743335 0.0555015)
(-0.0503672 0.748527 0.0581195)
(-0.0684632 0.748859 0.0599665)
(-0.0893373 0.742456 0.0593507)
(0.0155507 0.694082 0.0630935)
(0.000152281 0.713904 0.0752509)
(-0.0232584 0.724154 0.0826374)
(-0.0453303 0.728382 0.0869916)
(-0.0714336 0.730564 0.0888176)
(-0.102045 0.72538 0.0861045)
(0.0478873 0.659762 0.0887755)
(0.0263983 0.677657 0.113093)
(-0.00909377 0.683553 0.127041)
(-0.0378413 0.683973 0.134606)
(-0.0727332 0.690489 0.136713)
(-0.116528 0.68974 0.130505)
(0.0846746 0.608867 0.119204)
(0.0558892 0.622804 0.160636)
(0.00504798 0.61857 0.182715)
(-0.0277328 0.609025 0.194229)
(-0.0698223 0.626438 0.196909)
(-0.130448 0.636027 0.185845)
(0.130938 0.5305 0.161631)
(0.0934518 0.526039 0.243071)
(0.0177382 0.497098 0.28319)
(-0.0107658 0.465431 0.303445)
(-0.0556734 0.504926 0.305629)
(-0.144275 0.536462 0.285836)
(0.172604 0.425043 0.191004)
(0.124731 0.387807 0.297712)
(0.026256 0.309246 0.347334)
(0.0144895 0.230134 0.362696)
(-0.0311372 0.318652 0.375728)
(-0.154352 0.39129 0.349186)
(0.215716 0.311246 0.204197)
(0.165161 0.237112 0.317333)
(0.0734479 0.0792284 0.357567)
(0.0266737 -0.0904576 0.362093)
(-0.0544595 0.117137 0.395811)
(-0.184547 0.247106 0.373844)
(0.26168 0.187174 0.200411)
(0.216988 0.0722219 0.306626)
(0.138594 -0.145826 0.310128)
(-0.00623 -0.259632 0.322628)
(-0.152902 -0.0925616 0.37226)
(-0.255155 0.0874724 0.37051)
(0.295247 0.0644531 0.171054)
(0.250975 -0.0970035 0.241667)
(0.147207 -0.263946 0.232682)
(-0.0490584 -0.351221 0.2496)
(-0.21288 -0.22776 0.306408)
(-0.337678 -0.0944208 0.310842)
(0.309464 -0.0521024 0.114528)
(0.244925 -0.188796 0.158899)
(0.133106 -0.316598 0.134447)
(-0.0804424 -0.384046 0.147734)
(-0.236824 -0.304359 0.217656)
(-0.371999 -0.207768 0.227791)
(0.289622 -0.0940772 0.0403539)
(0.218637 -0.197959 0.0534172)
(0.114926 -0.283112 0.0129238)
(-0.0969055 -0.335669 0.0223424)
(-0.245335 -0.294007 0.0936962)
(-0.371328 -0.227529 0.11019)
(0.26829 -0.0960815 -0.0127176)
(0.203859 -0.155898 -0.00423869)
(0.110026 -0.194475 -0.0394872)
(-0.0772713 -0.230299 -0.0359557)
(-0.227167 -0.221629 0.0306476)
(-0.346943 -0.184604 0.0518161)
(0.247167 -0.0686325 -0.0543622)
(0.192991 -0.0976321 -0.0473419)
(0.116831 -0.103268 -0.0686884)
(-0.0310647 -0.12488 -0.0714826)
(-0.171271 -0.136418 -0.0255962)
(-0.28829 -0.122044 -0.00221703)
(0.196023 -0.0257728 -0.0697087)
(0.156221 -0.0291326 -0.0554109)
(0.101099 -0.0164385 -0.058781)
(0.0555388 -0.0140533 -0.0699969)
(-0.0470232 -0.0337092 -0.0400702)
(-0.142621 -0.033903 -0.0118574)
(-0.26993 -0.0214263 0.209729)
(-0.244584 -0.0321227 0.215362)
(-0.212385 -0.0404298 0.219507)
(-0.176048 -0.0458597 0.222774)
(-0.137991 -0.0498289 0.224984)
(-0.0990116 -0.0527106 0.226394)
(-0.317286 -0.0821246 0.100263)
(-0.278406 -0.101368 0.0959589)
(-0.23627 -0.113994 0.0944128)
(-0.192265 -0.121027 0.0950497)
(-0.149039 -0.12569 0.0952217)
(-0.106078 -0.128547 0.095145)
(-0.288769 -0.125399 -0.114404)
(-0.24474 -0.143738 -0.119474)
(-0.20444 -0.155467 -0.121477)
(-0.164186 -0.160582 -0.119793)
(-0.126571 -0.163795 -0.119435)
(-0.0893135 -0.165191 -0.119406)
(-0.210528 -0.0841742 -0.407218)
(-0.167672 -0.0954538 -0.400528)
(-0.139824 -0.103339 -0.397892)
(-0.109432 -0.105873 -0.390917)
(-0.0841646 -0.107795 -0.387167)
(-0.0583136 -0.108431 -0.384831)
(-0.165812 0.0228104 -0.367344)
(-0.1403 0.0194143 -0.359709)
(-0.11082 0.0175748 -0.352521)
(-0.085881 0.0161138 -0.348316)
(-0.0601691 0.0151907 -0.345305)
(-0.171435 0.0919807 -0.362897)
(-0.142333 0.0906305 -0.356876)
(-0.111717 0.0903495 -0.351137)
(-0.0857162 0.090202 -0.3479)
(-0.0599204 0.0902304 -0.345634)
(-0.173459 0.178982 -0.350332)
(-0.143072 0.180426 -0.345158)
(-0.11234 0.18194 -0.339992)
(-0.0860198 0.182948 -0.337053)
(-0.060292 0.183645 -0.335042)
(-0.171697 0.254673 -0.342694)
(-0.14137 0.259626 -0.337878)
(-0.111034 0.263711 -0.333014)
(-0.0850116 0.266504 -0.330281)
(-0.059694 0.268421 -0.328447)
(-0.166028 0.337117 -0.336268)
(-0.137136 0.345284 -0.331361)
(-0.107938 0.351627 -0.326626)
(-0.0828687 0.355984 -0.324078)
(-0.0583551 0.358961 -0.322399)
(-0.157378 0.416914 -0.326094)
(-0.130965 0.428508 -0.32108)
(-0.103457 0.437227 -0.316581)
(-0.0798058 0.443274 -0.314331)
(-0.0563414 0.447419 -0.312856)
(-0.144831 0.513363 -0.314693)
(-0.121959 0.527419 -0.309094)
(-0.0968124 0.537499 -0.304472)
(-0.0752596 0.54468 -0.30231)
(-0.0532966 0.549603 -0.300842)
(-0.13663 0.600843 -0.240188)
(-0.116138 0.617966 -0.236295)
(-0.092917 0.629634 -0.233242)
(-0.0727186 0.637995 -0.232148)
(-0.0514787 0.643605 -0.23128)
(-0.125471 0.64219 -0.164531)
(-0.108274 0.662646 -0.160107)
(-0.0882056 0.676323 -0.157284)
(-0.070049 0.686083 -0.156568)
(-0.0506467 0.692615 -0.15587)
(-0.115022 0.662679 -0.102713)
(-0.100528 0.68439 -0.0979571)
(-0.0833963 0.699019 -0.0949779)
(-0.0674076 0.709593 -0.0941907)
(-0.0498532 0.716696 -0.0936512)
(-0.10602 0.671465 -0.0597119)
(-0.0933887 0.693589 -0.0543131)
(-0.078693 0.708636 -0.0509334)
(-0.064643 0.719602 -0.0496996)
(-0.0488924 0.727046 -0.0489625)
(-0.0983858 0.676839 -0.0312305)
(-0.0871124 0.698695 -0.0250012)
(-0.0744235 0.713644 -0.0210826)
(-0.0620577 0.724486 -0.0193422)
(-0.0480086 0.73191 -0.0183332)
(-0.0921532 0.682048 -0.0136051)
(-0.0822188 0.703647 -0.00675613)
(-0.0712297 0.71846 -0.00229247)
(-0.0602363 0.728979 -4.70185e-05)
(-0.0476302 0.736237 0.0013136)
(-0.0874213 0.688855 -0.00354754)
(-0.0786378 0.709804 0.00341454)
(-0.068918 0.723721 0.00805774)
(-0.0590084 0.733309 0.0105401)
(-0.0476313 0.740034 0.0121948)
(-0.0833977 0.696724 0.00119668)
(-0.0755222 0.716527 0.00779096)
(-0.0669032 0.729302 0.0122972)
(-0.0580751 0.738011 0.0147537)
(-0.0478978 0.744219 0.0166115)
(-0.0793689 0.705354 0.00255869)
(-0.0724345 0.723964 0.00841562)
(-0.0650206 0.73574 0.012525)
(-0.0573731 0.743623 0.0147739)
(-0.0484945 0.74933 0.0168169)
(-0.0749092 0.714692 0.00215928)
(-0.0691515 0.73238 0.00708532)
(-0.0631281 0.743334 0.010587)
(-0.0568485 0.750514 0.0125143)
(-0.0494834 0.755761 0.0147533)
(-0.0697042 0.724882 0.00135508)
(-0.0653958 0.741901 0.00530131)
(-0.0610594 0.752431 0.0081308)
(-0.0564273 0.759091 0.00969502)
(-0.0509287 0.763941 0.0121466)
(-0.0634372 0.736146 0.00133911)
(-0.0609087 0.752872 0.00436502)
(-0.05864 0.763321 0.00658639)
(-0.0560464 0.769762 0.00783806)
(-0.0528942 0.77428 0.0105304)
(-0.0558007 0.748664 0.00327642)
(-0.05542 0.76573 0.00560011)
(-0.0556727 0.776432 0.00736856)
(-0.0556271 0.782893 0.00844037)
(-0.0554527 0.78713 0.0114071)
(-0.0462598 0.762331 0.00836516)
(-0.0484147 0.780535 0.0104326)
(-0.0518196 0.791981 0.0120382)
(-0.0550341 0.798782 0.0131473)
(-0.0586817 0.802782 0.0163847)
(-0.0337776 0.776309 0.0177419)
(-0.0390984 0.796869 0.0204727)
(-0.0466366 0.809784 0.022457)
(-0.0540768 0.817294 0.0239499)
(-0.0626346 0.821079 0.0274498)
(-0.0174058 0.789917 0.0327003)
(-0.0266426 0.814418 0.0377161)
(-0.0396818 0.829656 0.0409647)
(-0.0525274 0.838237 0.0433525)
(-0.0673197 0.841912 0.0471488)
(0.00448334 0.800649 0.0552704)
(-0.00955534 0.830764 0.0658345)
(-0.0301832 0.8486 0.0719924)
(-0.049906 0.858292 0.0761383)
(-0.0726127 0.862129 0.0802841)
(0.032848 0.806864 0.0865516)
(0.0134637 0.845446 0.107208)
(-0.0180709 0.866637 0.118783)
(-0.0458007 0.877009 0.12579)
(-0.0780813 0.882181 0.130093)
(-0.115801 0.875173 0.126966)
(0.0725077 0.799549 0.131103)
(0.0468739 0.844576 0.173696)
(-0.00138804 0.865026 0.196264)
(-0.0386897 0.873085 0.208695)
(-0.0823617 0.881893 0.213135)
(-0.136271 0.876412 0.203594)
(0.119683 0.778444 0.181871)
(0.0863503 0.837931 0.253757)
(0.0158737 0.853843 0.289891)
(-0.0288876 0.853642 0.310095)
(-0.0827113 0.872737 0.313718)
(-0.15679 0.875221 0.294565)
(0.194222 0.718016 0.253492)
(0.151017 0.759803 0.405335)
(0.0373064 0.747892 0.474104)
(-0.0105505 0.720614 0.510527)
(-0.0720163 0.76369 0.512305)
(-0.182104 0.789908 0.475207)
(0.252026 0.611923 0.297859)
(0.196663 0.594923 0.492159)
(0.0427035 0.515384 0.579248)
(0.0147008 0.435825 0.621226)
(-0.0434612 0.52352 0.626734)
(-0.196719 0.601812 0.574988)
(0.298471 0.494404 0.317906)
(0.234299 0.420662 0.528089)
(0.0730591 0.246613 0.616945)
(0.0354616 0.0529776 0.644264)
(-0.0432317 0.267803 0.672397)
(-0.220658 0.4174 0.619542)
(0.3461 0.368893 0.31357)
(0.287495 0.237812 0.521009)
(0.159666 -0.0442651 0.570452)
(-0.0019114 -0.244309 0.586022)
(-0.148968 0.00731212 0.647786)
(-0.294316 0.233991 0.618905)
(0.384908 0.238863 0.27688)
(0.340557 0.0438629 0.444843)
(0.203795 -0.229261 0.449574)
(-0.0691158 -0.383264 0.469595)
(-0.273331 -0.196911 0.530457)
(-0.41061 0.0240395 0.538254)
(0.404738 0.107915 0.213161)
(0.350124 -0.122382 0.312188)
(0.195698 -0.336497 0.307931)
(-0.122262 -0.461919 0.320032)
(-0.327873 -0.339249 0.383039)
(-0.488902 -0.180555 0.395969)
(0.367652 0.0332614 0.104488)
(0.296147 -0.152453 0.132511)
(0.161666 -0.310312 0.113855)
(-0.158283 -0.409249 0.120453)
(-0.33739 -0.33925 0.169306)
(-0.481432 -0.225993 0.185722)
(0.345647 0.025535 0.0372234)
(0.275657 -0.088226 0.0566579)
(0.154908 -0.178066 0.0440581)
(-0.148151 -0.254119 0.0474691)
(-0.31914 -0.22737 0.0880231)
(-0.45499 -0.157358 0.105964)
(0.314619 0.00668085 -0.0320746)
(0.25518 -0.0542586 -0.0216399)
(0.156275 -0.0859337 -0.0265648)
(-0.0964614 -0.134806 -0.0198096)
(-0.271155 -0.143042 0.0106567)
(-0.395019 -0.109389 0.0238551)
(0.255867 0.00439693 -0.0682033)
(0.210982 -0.00911203 -0.0497993)
(0.139826 -0.00014675 -0.0420151)
(0.0429288 -0.00410739 -0.0419846)
(-0.116316 -0.0340153 -0.0106095)
(-0.220627 -0.0327137 0.00481754)
(-0.255854 0.0119908 0.208969)
(-0.234684 0.00506263 0.221217)
(-0.206223 -0.000541636 0.231153)
(-0.172762 -0.00457563 0.238161)
(-0.136396 -0.00784251 0.24309)
(-0.0983189 -0.0103935 0.246518)
(-0.308138 0.031223 0.118842)
(-0.275185 0.0132473 0.1152)
(-0.236652 -0.00233816 0.110313)
(-0.194665 -0.013567 0.10989)
(-0.151793 -0.0219578 0.110007)
(-0.108414 -0.0277759 0.110091)
(-0.272897 -0.0215296 -0.124379)
(-0.235311 -0.0484577 -0.138914)
(-0.199971 -0.0670079 -0.144045)
(-0.162793 -0.0760022 -0.143993)
(-0.126317 -0.0823687 -0.144653)
(-0.0895651 -0.0859397 -0.145209)
(-0.162637 -0.0357607 -0.513851)
(-0.124943 -0.0518883 -0.509985)
(-0.106628 -0.0643404 -0.50982)
(-0.0830962 -0.0689412 -0.503998)
(-0.0643124 -0.0727297 -0.500902)
(-0.0442272 -0.0745169 -0.499057)
(-0.160894 0.0516044 -0.487577)
(-0.125662 0.0453574 -0.472053)
(-0.108922 0.0394949 -0.464823)
(-0.0852517 0.036321 -0.458238)
(-0.0666186 0.0337151 -0.454154)
(-0.0464752 0.031998 -0.451393)
(-0.132995 0.0876242 -0.464861)
(-0.112068 0.085423 -0.458542)
(-0.0873302 0.0845004 -0.452984)
(-0.0673687 0.0837731 -0.449707)
(-0.0469556 0.0833563 -0.447566)
(-0.135552 0.158558 -0.452452)
(-0.113158 0.159731 -0.446918)
(-0.0884273 0.160961 -0.441816)
(-0.0680247 0.161678 -0.438806)
(-0.0475996 0.162146 -0.436863)
(-0.13392 0.216191 -0.444982)
(-0.111726 0.221069 -0.439829)
(-0.0874235 0.225013 -0.435063)
(-0.0672658 0.22763 -0.432322)
(-0.0471557 0.229425 -0.430583)
(-0.127986 0.285765 -0.440603)
(-0.107581 0.293694 -0.435386)
(-0.0844094 0.299799 -0.43084)
(-0.0652147 0.303943 -0.428364)
(-0.0458296 0.306804 -0.426818)
(-0.118931 0.353177 -0.434181)
(-0.101523 0.364538 -0.429085)
(-0.0799032 0.372969 -0.424975)
(-0.0621549 0.378792 -0.422927)
(-0.0436706 0.382848 -0.421669)
(-0.103436 0.449174 -0.434282)
(-0.0909232 0.462933 -0.428727)
(-0.0717334 0.472172 -0.424647)
(-0.0565376 0.478931 -0.422729)
(-0.0396426 0.483608 -0.421473)
(-0.0960547 0.540792 -0.312284)
(-0.0864388 0.55893 -0.310881)
(-0.0690687 0.569893 -0.310075)
(-0.0548659 0.577969 -0.310257)
(-0.0375643 0.583338 -0.31029)
(-0.0777379 0.546144 -0.198937)
(-0.0742287 0.568079 -0.194793)
(-0.0623771 0.580656 -0.193923)
(-0.0512738 0.589836 -0.194861)
(-0.037142 0.596261 -0.194756)
(-0.0615195 0.536707 -0.114638)
(-0.0623438 0.558312 -0.109669)
(-0.0550812 0.570535 -0.107827)
(-0.0475433 0.579714 -0.108588)
(-0.0361653 0.586054 -0.109269)
(-0.0482656 0.523013 -0.0656981)
(-0.051702 0.54417 -0.0600057)
(-0.0482303 0.556017 -0.0568259)
(-0.0435875 0.56478 -0.0563404)
(-0.034789 0.570856 -0.0566267)
(-0.0371555 0.515805 -0.0375079)
(-0.0426109 0.535547 -0.0314113)
(-0.0424006 0.546606 -0.0273352)
(-0.040247 0.554419 -0.0256092)
(-0.0337541 0.559931 -0.0250754)
(-0.0284683 0.514914 -0.0217969)
(-0.0354054 0.532253 -0.0157737)
(-0.037723 0.542038 -0.0112998)
(-0.0375916 0.548507 -0.00892413)
(-0.0331063 0.553373 -0.00778864)
(-0.0214837 0.519942 -0.0137426)
(-0.0296489 0.534669 -0.00790074)
(-0.0340282 0.542992 -0.0031983)
(-0.0357068 0.548435 -0.000565573)
(-0.0330983 0.553262 0.000937753)
(-0.0154206 0.529914 -0.0104243)
(-0.0248829 0.54248 -0.00495156)
(-0.0311895 0.549547 -0.000406111)
(-0.0346006 0.553903 0.00216279)
(-0.033783 0.558577 0.00395058)
(-0.0096678 0.543748 -0.00985514)
(-0.0205648 0.554431 -0.00505876)
(-0.0289275 0.560621 -0.00103371)
(-0.0340463 0.563954 0.00119884)
(-0.0351131 0.568556 0.00331687)
(-0.0035332 0.560509 -0.0106332)
(-0.0161065 0.569581 -0.006772)
(-0.026685 0.574848 -0.00348938)
(-0.0337276 0.577193 -0.00177946)
(-0.0371069 0.58199 0.000730997)
(0.0035973 0.579644 -0.0116749)
(-0.0110306 0.587789 -0.00888286)
(-0.0240803 0.592117 -0.00656245)
(-0.0335783 0.593767 -0.00542549)
(-0.0399724 0.599017 -0.00242771)
(0.0121335 0.600995 -0.0119886)
(-0.00483751 0.60915 -0.0103369)
(-0.0208542 0.613002 -0.0090733)
(-0.0335497 0.614332 -0.00845459)
(-0.0438339 0.620236 -0.00483415)
(0.022505 0.62466 -0.0104965)
(0.00303586 0.634014 -0.00992813)
(-0.0167702 0.638387 -0.00967284)
(-0.0335952 0.64009 -0.00943735)
(-0.0487897 0.646743 -0.00502544)
(0.0350443 0.651024 -0.00581093)
(0.0128773 0.663417 -0.00598476)
(-0.0117008 0.669774 -0.0066058)
(-0.0337289 0.672705 -0.00651701)
(-0.0549856 0.68008 -0.0011085)
(0.0502434 0.680558 0.00403198)
(0.024995 0.698287 0.00405778)
(-0.00532973 0.708565 0.00300521)
(-0.0338812 0.713818 0.00322776)
(-0.0623394 0.721499 0.00974848)
(0.0700123 0.713006 0.0210112)
(0.0411547 0.739427 0.0233168)
(0.00366118 0.755772 0.0229814)
(-0.0334438 0.764795 0.0237415)
(-0.0707799 0.772443 0.031221)
(0.0964674 0.746663 0.0483553)
(0.0634793 0.785535 0.0578839)
(0.0164187 0.809871 0.0608072)
(-0.0317392 0.823618 0.0630343)
(-0.0802494 0.83112 0.0712858)
(0.130665 0.78236 0.0879891)
(0.0929506 0.842799 0.112762)
(0.0328925 0.878646 0.122962)
(-0.0285242 0.898305 0.128377)
(-0.0905307 0.906349 0.136778)
(0.182058 0.806191 0.150194)
(0.138924 0.887186 0.217134)
(0.0556975 0.930959 0.246013)
(-0.0211585 0.953998 0.25826)
(-0.10035 0.964024 0.266615)
(-0.186328 0.944931 0.259067)
(0.240372 0.825449 0.223795)
(0.189895 0.960316 0.352791)
(0.0770651 1.01547 0.406822)
(-0.0112675 1.0383 0.431498)
(-0.107334 1.05641 0.437688)
(-0.216572 1.03556 0.414345)
(0.359108 0.788904 0.355449)
(0.294992 0.908329 0.75883)
(0.109326 0.940245 0.888619)
(0.00900488 0.939294 0.935403)
(-0.104398 0.977886 0.940889)
(-0.258991 0.975574 0.893108)
(0.424476 0.687846 0.430216)
(0.348947 0.715453 0.941559)
(0.111728 0.665577 1.10135)
(0.0318951 0.599087 1.16093)
(-0.0799966 0.683798 1.16648)
(-0.277413 0.740798 1.09961)
(0.466651 0.582849 0.464684)
(0.383098 0.538114 1.00401)
(0.122877 0.379529 1.17187)
(0.0549985 0.196403 1.21332)
(-0.0630596 0.391756 1.23992)
(-0.296592 0.535935 1.17286)
(0.507221 0.467136 0.461852)
(0.428104 0.349829 0.991464)
(0.204532 0.0555685 1.12945)
(0.0154544 -0.237584 1.1516)
(-0.159793 0.0818494 1.21018)
(-0.364842 0.327921 1.165)
(0.533417 0.342482 0.415663)
(0.475373 0.146023 0.896504)
(0.277833 -0.198011 0.98097)
(-0.0653055 -0.426239 1.01466)
(-0.331587 -0.195532 1.06281)
(-0.487628 0.0920565 1.06163)
(0.541411 0.202248 0.3317)
(0.491953 -0.0903459 0.699137)
(0.28148 -0.373992 0.773455)
(-0.12023 -0.562845 0.790626)
(-0.401514 -0.414162 0.840203)
(-0.589574 -0.207764 0.846285)
(0.458006 0.111697 0.167391)
(0.390984 -0.150908 0.249999)
(0.226383 -0.363265 0.282001)
(-0.146663 -0.507924 0.294694)
(-0.388892 -0.425096 0.307731)
(-0.552842 -0.278321 0.308639)
(0.414674 0.103977 0.0864466)
(0.352444 -0.0378783 0.139412)
(0.211273 -0.161273 0.170785)
(-0.123445 -0.273142 0.177537)
(-0.352599 -0.241334 0.182975)
(-0.508215 -0.15014 0.186044)
(0.367194 0.0706807 0.0239997)
(0.315831 -0.0147354 0.0444701)
(0.208773 -0.0712082 0.0715664)
(-0.0597159 -0.144591 0.0830068)
(-0.287266 -0.156642 0.0786448)
(-0.426843 -0.112866 0.0773004)
(0.300586 0.0351966 -0.00261483)
(0.259467 0.0121931 0.0158182)
(0.182851 0.014522 0.0409612)
(0.0794544 0.00705173 0.0575485)
(-0.123188 -0.0287266 0.0605889)
(-0.24146 -0.0283797 0.0582941)
(-0.233109 0.0363923 0.137989)
(-0.215169 0.0341135 0.150304)
(-0.190659 0.032268 0.161599)
(-0.160944 0.0308346 0.170982)
(-0.127841 0.0294983 0.178405)
(-0.092436 0.0283994 0.183996)
(-0.279668 0.106766 0.0744825)
(-0.251449 0.100732 0.0787247)
(-0.219303 0.0947223 0.0832651)
(-0.183049 0.0897684 0.0884205)
(-0.144184 0.0853098 0.0928635)
(-0.103429 0.0817458 0.0963909)
(-0.26059 0.0737171 -0.0680545)
(-0.231531 0.0553903 -0.0694439)
(-0.200018 0.0388247 -0.0751937)
(-0.164243 0.0294798 -0.0820871)
(-0.128184 0.0221583 -0.0878756)
(-0.0912216 0.0176819 -0.0916721)
(-0.120885 0.00182454 -0.56343)
(-0.0877199 -0.0122434 -0.565496)
(-0.0772953 -0.0258196 -0.571269)
(-0.0603164 -0.0312781 -0.568948)
(-0.0470025 -0.0361177 -0.568457)
(-0.0320074 -0.0387638 -0.568451)
(-0.121596 0.0734318 -0.555355)
(-0.0902657 0.06528 -0.542427)
(-0.0808763 0.0582258 -0.536602)
(-0.0626956 0.0545776 -0.531833)
(-0.0494512 0.051521 -0.528716)
(-0.0343627 0.0494379 -0.526776)
(-0.129471 0.0798758 -0.550198)
(-0.0976039 0.0785549 -0.538459)
(-0.0841992 0.0760499 -0.532453)